PSF

       1 !NTITLE
 REMARKS CNT with 18-crown-6 pores

    2964 !NATOM
       1 CNT  1    CNT  C    CA     0.000000   12.01070000        0
       2 CNT  1    CNT  C    CA     0.000000   12.01070000        0
       3 CNT  1    CNT  C    CA     0.000000   12.01070000        0
       4 CNT  1    CNT  C    CA     0.000000   12.01070000        0
       5 CNT  1    CNT  C    CA     0.000000   12.01070000        0
       6 CNT  1    CNT  C    CA     0.000000   12.01070000        0
       7 CNT  1    CNT  C    CA     0.000000   12.01070000        0
       8 CNT  1    CNT  C    CA     0.000000   12.01070000        0
       9 CNT  1    CNT  C    CA     0.000000   12.01070000        0
      10 CNT  1    CNT  C    CA     0.000000   12.01070000        0
      11 CNT  1    CNT  C    CA     0.000000   12.01070000        0
      12 CNT  1    CNT  C    CA     0.000000   12.01070000        0
      13 CNT  1    CNT  C    CA     0.000000   12.01070000        0
      14 CNT  1    CNT  C    CA     0.000000   12.01070000        0
      15 CNT  1    CNT  C    CA     0.000000   12.01070000        0
      16 CNT  1    CNT  C    CA     0.000000   12.01070000        0
      17 CNT  1    CNT  C    CA     0.000000   12.01070000        0
      18 CNT  1    CNT  C    CA     0.000000   12.01070000        0
      19 CNT  1    CNT  C    CA     0.000000   12.01070000        0
      20 CNT  1    CNT  C    CA     0.000000   12.01070000        0
      21 CNT  1    CNT  C    CA     0.000000   12.01070000        0
      22 CNT  1    CNT  C    CA     0.000000   12.01070000        0
      23 CNT  1    CNT  C    CA     0.000000   12.01070000        0
      24 CNT  1    CNT  C    CA     0.000000   12.01070000        0
      25 CNT  1    CNT  C    CA     0.000000   12.01070000        0
      26 CNT  1    CNT  C    CA     0.000000   12.01070000        0
      27 CNT  1    CNT  C    CA     0.000000   12.01070000        0
      28 CNT  1    CNT  C    CA     0.000000   12.01070000        0
      29 CNT  1    CNT  C    CA     0.000000   12.01070000        0
      30 CNT  1    CNT  C    CA     0.000000   12.01070000        0
      31 CNT  1    CNT  C    CA     0.000000   12.01070000        0
      32 CNT  1    CNT  C    CA     0.000000   12.01070000        0
      33 CNT  1    CNT  C    CA     0.000000   12.01070000        0
      34 CNT  1    CNT  C    CA     0.000000   12.01070000        0
      35 CNT  1    CNT  C    CA     0.000000   12.01070000        0
      36 CNT  1    CNT  C    CA     0.000000   12.01070000        0
      37 CNT  1    CNT  C    CA     0.000000   12.01070000        0
      38 CNT  1    CNT  C    CA     0.000000   12.01070000        0
      39 CNT  1    CNT  C    CA     0.000000   12.01070000        0
      40 CNT  1    CNT  C    CA     0.000000   12.01070000        0
      41 CNT  1    CNT  C    CA     0.000000   12.01070000        0
      42 CNT  1    CNT  C    CA     0.000000   12.01070000        0
      43 CNT  1    CNT  C    CA     0.000000   12.01070000        0
      44 CNT  1    CNT  C    CA     0.000000   12.01070000        0
      45 CNT  1    CNT  C    CA     0.000000   12.01070000        0
      46 CNT  1    CNT  C    CA     0.000000   12.01070000        0
      47 CNT  1    CNT  C    CA     0.000000   12.01070000        0
      48 CNT  1    CNT  C    CA     0.000000   12.01070000        0
      49 CNT  1    CNT  C    CA     0.000000   12.01070000        0
      50 CNT  1    CNT  C    CA     0.000000   12.01070000        0
      51 CNT  1    CNT  C    CA     0.000000   12.01070000        0
      52 CNT  1    CNT  C    CA     0.000000   12.01070000        0
      53 CNT  1    CNT  C    CA     0.000000   12.01070000        0
      54 CNT  1    CNT  C    CA     0.000000   12.01070000        0
      55 CNT  1    CNT  C    CA     0.000000   12.01070000        0
      56 CNT  1    CNT  C    CA     0.000000   12.01070000        0
      57 CNT  1    CNT  C    CA     0.000000   12.01070000        0
      58 CNT  1    CNT  C    CA     0.000000   12.01070000        0
      59 CNT  1    CNT  C    CA     0.000000   12.01070000        0
      60 CNT  1    CNT  C    CA     0.000000   12.01070000        0
      61 CNT  1    CNT  C    CA     0.000000   12.01070000        0
      62 CNT  1    CNT  C    CA     0.000000   12.01070000        0
      63 CNT  1    CNT  C    CA     0.000000   12.01070000        0
      64 CNT  1    CNT  C    CA     0.000000   12.01070000        0
      65 CNT  1    CNT  C    CA     0.000000   12.01070000        0
      66 CNT  1    CNT  C    CA     0.000000   12.01070000        0
      67 CNT  1    CNT  C    CA     0.000000   12.01070000        0
      68 CNT  1    CNT  C    CA     0.000000   12.01070000        0
      69 CNT  1    CNT  C    CA     0.000000   12.01070000        0
      70 CNT  1    CNT  C    CA     0.000000   12.01070000        0
      71 CNT  1    CNT  C    CA     0.000000   12.01070000        0
      72 CNT  1    CNT  C    CA     0.000000   12.01070000        0
      73 CNT  1    CNT  C    CA     0.000000   12.01070000        0
      74 CNT  1    CNT  C    CA     0.000000   12.01070000        0
      75 CNT  1    CNT  C    CA     0.000000   12.01070000        0
      76 CNT  1    CNT  C    CA     0.000000   12.01070000        0
      77 CNT  1    CNT  C    CA     0.000000   12.01070000        0
      78 CNT  1    CNT  C    CA     0.000000   12.01070000        0
      79 CNT  1    CNT  C    CA     0.000000   12.01070000        0
      80 CNT  1    CNT  C    CA     0.000000   12.01070000        0
      81 CNT  1    CNT  C    CA     0.000000   12.01070000        0
      82 CNT  1    CNT  C    CA     0.000000   12.01070000        0
      83 CNT  1    CNT  C    CA     0.000000   12.01070000        0
      84 CNT  1    CNT  C    CA     0.000000   12.01070000        0
      85 CNT  1    CNT  C    CA     0.000000   12.01070000        0
      86 CNT  1    CNT  C    CA     0.000000   12.01070000        0
      87 CNT  1    CNT  C    CA     0.000000   12.01070000        0
      88 CNT  1    CNT  C    CA     0.000000   12.01070000        0
      89 CNT  1    CNT  C    CA     0.000000   12.01070000        0
      90 CNT  1    CNT  C    CA     0.000000   12.01070000        0
      91 CNT  1    CNT  C    CA     0.000000   12.01070000        0
      92 CNT  1    CNT  C    CA     0.000000   12.01070000        0
      93 CNT  1    CNT  C    CA     0.000000   12.01070000        0
      94 CNT  1    CNT  C    CA     0.000000   12.01070000        0
      95 CNT  1    CNT  C    CA     0.000000   12.01070000        0
      96 CNT  1    CNT  C    CA     0.000000   12.01070000        0
      97 CNT  1    CNT  C    CA     0.000000   12.01070000        0
      98 CNT  1    CNT  C    CA     0.000000   12.01070000        0
      99 CNT  1    CNT  C    CA     0.000000   12.01070000        0
     100 CNT  1    CNT  C    CA     0.000000   12.01070000        0
     101 CNT  1    CNT  C    CA     0.000000   12.01070000        0
     102 CNT  1    CNT  C    CA     0.000000   12.01070000        0
     103 CNT  1    CNT  C    CA     0.000000   12.01070000        0
     104 CNT  1    CNT  C    CA     0.000000   12.01070000        0
     105 CNT  1    CNT  C    CA     0.000000   12.01070000        0
     106 CNT  1    CNT  C    CA     0.000000   12.01070000        0
     107 CNT  1    CNT  C    CA     0.000000   12.01070000        0
     108 CNT  1    CNT  C    CA     0.000000   12.01070000        0
     109 CNT  1    CNT  C    CA     0.000000   12.01070000        0
     110 CNT  1    CNT  C    CA     0.000000   12.01070000        0
     111 CNT  1    CNT  C    CA     0.000000   12.01070000        0
     112 CNT  1    CNT  C    CA     0.000000   12.01070000        0
     113 CNT  1    CNT  C    CA     0.000000   12.01070000        0
     114 CNT  1    CNT  C    CA     0.000000   12.01070000        0
     115 CNT  1    CNT  C    CA     0.000000   12.01070000        0
     116 CNT  1    CNT  C    CA     0.000000   12.01070000        0
     117 CNT  1    CNT  C    CA     0.000000   12.01070000        0
     118 CNT  1    CNT  C    CA     0.000000   12.01070000        0
     119 CNT  1    CNT  C    CA     0.000000   12.01070000        0
     120 CNT  1    CNT  C    CA     0.000000   12.01070000        0
     121 CNT  1    CNT  C    CA     0.000000   12.01070000        0
     122 CNT  1    CNT  C    CA     0.000000   12.01070000        0
     123 CNT  1    CNT  C    CA     0.000000   12.01070000        0
     124 CNT  1    CNT  C    CA     0.000000   12.01070000        0
     125 CNT  1    CNT  C    CA     0.000000   12.01070000        0
     126 CNT  1    CNT  C    CA     0.000000   12.01070000        0
     127 CNT  1    CNT  C    CA     0.000000   12.01070000        0
     128 CNT  1    CNT  C    CA     0.000000   12.01070000        0
     129 CNT  1    CNT  C    CA     0.000000   12.01070000        0
     130 CNT  1    CNT  C    CA     0.000000   12.01070000        0
     131 CNT  1    CNT  C    CA     0.000000   12.01070000        0
     132 CNT  1    CNT  C    CA     0.000000   12.01070000        0
     133 CNT  1    CNT  C    CA     0.000000   12.01070000        0
     134 CNT  1    CNT  C    CA     0.000000   12.01070000        0
     135 CNT  1    CNT  C    CA     0.000000   12.01070000        0
     136 CNT  1    CNT  C    CA     0.000000   12.01070000        0
     137 CNT  1    CNT  C    CA     0.000000   12.01070000        0
     138 CNT  1    CNT  C    CA     0.000000   12.01070000        0
     139 CNT  1    CNT  C    CA     0.000000   12.01070000        0
     140 CNT  1    CNT  C    CA     0.000000   12.01070000        0
     141 CNT  1    CNT  C    CA     0.000000   12.01070000        0
     142 CNT  1    CNT  C    CA     0.000000   12.01070000        0
     143 CNT  1    CNT  C    CA     0.000000   12.01070000        0
     144 CNT  1    CNT  C    CA     0.000000   12.01070000        0
     145 CNT  1    CNT  C    CA     0.000000   12.01070000        0
     146 CNT  1    CNT  C    CA     0.000000   12.01070000        0
     147 CNT  1    CNT  C    CA     0.000000   12.01070000        0
     148 CNT  1    CNT  C    CA     0.000000   12.01070000        0
     149 CNT  1    CNT  C    CA     0.000000   12.01070000        0
     150 CNT  1    CNT  C    CA     0.000000   12.01070000        0
     151 CNT  1    CNT  C    CA     0.000000   12.01070000        0
     152 CNT  1    CNT  C    CA     0.000000   12.01070000        0
     153 CNT  1    CNT  C    CA     0.000000   12.01070000        0
     154 CNT  1    CNT  C    CA     0.000000   12.01070000        0
     155 CNT  1    CNT  C    CA     0.000000   12.01070000        0
     156 CNT  1    CNT  C    CA     0.000000   12.01070000        0
     157 CNT  1    CNT  C    CA     0.000000   12.01070000        0
     158 CNT  1    CNT  C    CA     0.000000   12.01070000        0
     159 CNT  1    CNT  C    CA     0.000000   12.01070000        0
     160 CNT  1    CNT  C    CA     0.000000   12.01070000        0
     161 CNT  1    CNT  C    CA     0.000000   12.01070000        0
     162 CNT  1    CNT  C    CA     0.000000   12.01070000        0
     163 CNT  1    CNT  C    CA     0.000000   12.01070000        0
     164 CNT  1    CNT  C    CA     0.000000   12.01070000        0
     165 CNT  1    CNT  C    CA     0.000000   12.01070000        0
     166 CNT  1    CNT  C    CA     0.000000   12.01070000        0
     167 CNT  1    CNT  C    CA     0.000000   12.01070000        0
     168 CNT  1    CNT  C    CA     0.000000   12.01070000        0
     169 CNT  1    CNT  C    CA     0.000000   12.01070000        0
     170 CNT  1    CNT  C    CA     0.000000   12.01070000        0
     171 CNT  1    CNT  C    CA     0.000000   12.01070000        0
     172 CNT  1    CNT  C    CA     0.000000   12.01070000        0
     173 CNT  1    CNT  C    CA     0.000000   12.01070000        0
     174 CNT  1    CNT  C    CA     0.000000   12.01070000        0
     175 CNT  1    CNT  C    CA     0.000000   12.01070000        0
     176 CNT  1    CNT  C    CA     0.000000   12.01070000        0
     177 CNT  1    CNT  C    CA     0.000000   12.01070000        0
     178 CNT  1    CNT  C    CA     0.000000   12.01070000        0
     179 CNT  1    CNT  C    CA     0.000000   12.01070000        0
     180 CNT  1    CNT  C    CA     0.000000   12.01070000        0
     181 CNT  1    CNT  C    CA     0.000000   12.01070000        0
     182 CNT  1    CNT  C    CA     0.000000   12.01070000        0
     183 CNT  1    CNT  C    CA     0.000000   12.01070000        0
     184 CNT  1    CNT  C    CA     0.000000   12.01070000        0
     185 CNT  1    CNT  C    CA     0.000000   12.01070000        0
     186 CNT  1    CNT  C    CA     0.000000   12.01070000        0
     187 CNT  1    CNT  O    OX     0.000000   15.99940000        0
     188 CNT  1    CNT  C    CA     0.000000   12.01070000        0
     189 CNT  1    CNT  C    CA     0.000000   12.01070000        0
     190 CNT  1    CNT  C    CA     0.000000   12.01070000        0
     191 CNT  1    CNT  C    CA     0.000000   12.01070000        0
     192 CNT  1    CNT  C    CA     0.000000   12.01070000        0
     193 CNT  1    CNT  C    CA     0.000000   12.01070000        0
     194 CNT  1    CNT  C    CA     0.000000   12.01070000        0
     195 CNT  1    CNT  C    CA     0.000000   12.01070000        0
     196 CNT  1    CNT  C    CA     0.000000   12.01070000        0
     197 CNT  1    CNT  C    CA     0.000000   12.01070000        0
     198 CNT  1    CNT  C    CA     0.000000   12.01070000        0
     199 CNT  1    CNT  C    CA     0.000000   12.01070000        0
     200 CNT  1    CNT  C    CA     0.000000   12.01070000        0
     201 CNT  1    CNT  C    CA     0.000000   12.01070000        0
     202 CNT  1    CNT  C    CA     0.000000   12.01070000        0
     203 CNT  1    CNT  C    CA     0.000000   12.01070000        0
     204 CNT  1    CNT  C    CA     0.000000   12.01070000        0
     205 CNT  1    CNT  C    CA     0.000000   12.01070000        0
     206 CNT  1    CNT  C    CA     0.000000   12.01070000        0
     207 CNT  1    CNT  C    CA     0.000000   12.01070000        0
     208 CNT  1    CNT  C    CA     0.000000   12.01070000        0
     209 CNT  1    CNT  C    CA     0.000000   12.01070000        0
     210 CNT  1    CNT  C    CA     0.000000   12.01070000        0
     211 CNT  1    CNT  C    CA     0.000000   12.01070000        0
     212 CNT  1    CNT  C    CA     0.000000   12.01070000        0
     213 CNT  1    CNT  C    CA     0.000000   12.01070000        0
     214 CNT  1    CNT  O    OX     0.000000   15.99940000        0
     215 CNT  1    CNT  O    OX     0.000000   15.99940000        0
     216 CNT  1    CNT  C    CA     0.000000   12.01070000        0
     217 CNT  1    CNT  C    CA     0.000000   12.01070000        0
     218 CNT  1    CNT  C    CA     0.000000   12.01070000        0
     219 CNT  1    CNT  C    CA     0.000000   12.01070000        0
     220 CNT  1    CNT  C    CA     0.000000   12.01070000        0
     221 CNT  1    CNT  C    CA     0.000000   12.01070000        0
     222 CNT  1    CNT  C    CA     0.000000   12.01070000        0
     223 CNT  1    CNT  C    CA     0.000000   12.01070000        0
     224 CNT  1    CNT  C    CA     0.000000   12.01070000        0
     225 CNT  1    CNT  C    CA     0.000000   12.01070000        0
     226 CNT  1    CNT  C    CA     0.000000   12.01070000        0
     227 CNT  1    CNT  C    CA     0.000000   12.01070000        0
     228 CNT  1    CNT  C    CA     0.000000   12.01070000        0
     229 CNT  1    CNT  C    CA     0.000000   12.01070000        0
     230 CNT  1    CNT  C    CA     0.000000   12.01070000        0
     231 CNT  1    CNT  C    CA     0.000000   12.01070000        0
     232 CNT  1    CNT  C    CA     0.000000   12.01070000        0
     233 CNT  1    CNT  C    CA     0.000000   12.01070000        0
     234 CNT  1    CNT  C    CA     0.000000   12.01070000        0
     235 CNT  1    CNT  C    CA     0.000000   12.01070000        0
     236 CNT  1    CNT  C    CA     0.000000   12.01070000        0
     237 CNT  1    CNT  C    CA     0.000000   12.01070000        0
     238 CNT  1    CNT  C    CA     0.000000   12.01070000        0
     239 CNT  1    CNT  C    CA     0.000000   12.01070000        0
     240 CNT  1    CNT  C    CA     0.000000   12.01070000        0
     241 CNT  1    CNT  C    CA     0.000000   12.01070000        0
     242 CNT  1    CNT  O    OX     0.000000   15.99940000        0
     243 CNT  1    CNT  C    CA     0.000000   12.01070000        0
     244 CNT  1    CNT  C    CA     0.000000   12.01070000        0
     245 CNT  1    CNT  O    OX     0.000000   15.99940000        0
     246 CNT  1    CNT  C    CA     0.000000   12.01070000        0
     247 CNT  1    CNT  C    CA     0.000000   12.01070000        0
     248 CNT  1    CNT  C    CA     0.000000   12.01070000        0
     249 CNT  1    CNT  C    CA     0.000000   12.01070000        0
     250 CNT  1    CNT  C    CA     0.000000   12.01070000        0
     251 CNT  1    CNT  C    CA     0.000000   12.01070000        0
     252 CNT  1    CNT  C    CA     0.000000   12.01070000        0
     253 CNT  1    CNT  C    CA     0.000000   12.01070000        0
     254 CNT  1    CNT  C    CA     0.000000   12.01070000        0
     255 CNT  1    CNT  C    CA     0.000000   12.01070000        0
     256 CNT  1    CNT  C    CA     0.000000   12.01070000        0
     257 CNT  1    CNT  C    CA     0.000000   12.01070000        0
     258 CNT  1    CNT  C    CA     0.000000   12.01070000        0
     259 CNT  1    CNT  C    CA     0.000000   12.01070000        0
     260 CNT  1    CNT  C    CA     0.000000   12.01070000        0
     261 CNT  1    CNT  C    CA     0.000000   12.01070000        0
     262 CNT  1    CNT  C    CA     0.000000   12.01070000        0
     263 CNT  1    CNT  C    CA     0.000000   12.01070000        0
     264 CNT  1    CNT  C    CA     0.000000   12.01070000        0
     265 CNT  1    CNT  C    CA     0.000000   12.01070000        0
     266 CNT  1    CNT  C    CA     0.000000   12.01070000        0
     267 CNT  1    CNT  C    CA     0.000000   12.01070000        0
     268 CNT  1    CNT  C    CA     0.000000   12.01070000        0
     269 CNT  1    CNT  C    CA     0.000000   12.01070000        0
     270 CNT  1    CNT  C    CA     0.000000   12.01070000        0
     271 CNT  1    CNT  C    CA     0.000000   12.01070000        0
     272 CNT  1    CNT  C    CA     0.000000   12.01070000        0
     273 CNT  1    CNT  C    CA     0.000000   12.01070000        0
     274 CNT  1    CNT  O    OX     0.000000   15.99940000        0
     275 CNT  1    CNT  O    OX     0.000000   15.99940000        0
     276 CNT  1    CNT  C    CA     0.000000   12.01070000        0
     277 CNT  1    CNT  C    CA     0.000000   12.01070000        0
     278 CNT  1    CNT  C    CA     0.000000   12.01070000        0
     279 CNT  1    CNT  C    CA     0.000000   12.01070000        0
     280 CNT  1    CNT  C    CA     0.000000   12.01070000        0
     281 CNT  1    CNT  C    CA     0.000000   12.01070000        0
     282 CNT  1    CNT  C    CA     0.000000   12.01070000        0
     283 CNT  1    CNT  C    CA     0.000000   12.01070000        0
     284 CNT  1    CNT  C    CA     0.000000   12.01070000        0
     285 CNT  1    CNT  C    CA     0.000000   12.01070000        0
     286 CNT  1    CNT  C    CA     0.000000   12.01070000        0
     287 CNT  1    CNT  C    CA     0.000000   12.01070000        0
     288 CNT  1    CNT  C    CA     0.000000   12.01070000        0
     289 CNT  1    CNT  C    CA     0.000000   12.01070000        0
     290 CNT  1    CNT  C    CA     0.000000   12.01070000        0
     291 CNT  1    CNT  C    CA     0.000000   12.01070000        0
     292 CNT  1    CNT  C    CA     0.000000   12.01070000        0
     293 CNT  1    CNT  C    CA     0.000000   12.01070000        0
     294 CNT  1    CNT  C    CA     0.000000   12.01070000        0
     295 CNT  1    CNT  C    CA     0.000000   12.01070000        0
     296 CNT  1    CNT  C    CA     0.000000   12.01070000        0
     297 CNT  1    CNT  C    CA     0.000000   12.01070000        0
     298 CNT  1    CNT  C    CA     0.000000   12.01070000        0
     299 CNT  1    CNT  C    CA     0.000000   12.01070000        0
     300 CNT  1    CNT  O    OX     0.000000   15.99940000        0
     301 CNT  1    CNT  O    OX     0.000000   15.99940000        0
     302 CNT  1    CNT  C    CA     0.000000   12.01070000        0
     303 CNT  1    CNT  C    CA     0.000000   12.01070000        0
     304 CNT  1    CNT  C    CA     0.000000   12.01070000        0
     305 CNT  1    CNT  C    CA     0.000000   12.01070000        0
     306 CNT  1    CNT  C    CA     0.000000   12.01070000        0
     307 CNT  1    CNT  C    CA     0.000000   12.01070000        0
     308 CNT  1    CNT  C    CA     0.000000   12.01070000        0
     309 CNT  1    CNT  C    CA     0.000000   12.01070000        0
     310 CNT  1    CNT  C    CA     0.000000   12.01070000        0
     311 CNT  1    CNT  C    CA     0.000000   12.01070000        0
     312 CNT  1    CNT  C    CA     0.000000   12.01070000        0
     313 CNT  1    CNT  C    CA     0.000000   12.01070000        0
     314 CNT  1    CNT  C    CA     0.000000   12.01070000        0
     315 CNT  1    CNT  C    CA     0.000000   12.01070000        0
     316 CNT  1    CNT  C    CA     0.000000   12.01070000        0
     317 CNT  1    CNT  C    CA     0.000000   12.01070000        0
     318 CNT  1    CNT  C    CA     0.000000   12.01070000        0
     319 CNT  1    CNT  C    CA     0.000000   12.01070000        0
     320 CNT  1    CNT  C    CA     0.000000   12.01070000        0
     321 CNT  1    CNT  C    CA     0.000000   12.01070000        0
     322 CNT  1    CNT  C    CA     0.000000   12.01070000        0
     323 CNT  1    CNT  C    CA     0.000000   12.01070000        0
     324 CNT  1    CNT  C    CA     0.000000   12.01070000        0
     325 CNT  1    CNT  C    CA     0.000000   12.01070000        0
     326 CNT  1    CNT  O    OX     0.000000   15.99940000        0
     327 CNT  1    CNT  O    OX     0.000000   15.99940000        0
     328 CNT  1    CNT  C    CA     0.000000   12.01070000        0
     329 CNT  1    CNT  C    CA     0.000000   12.01070000        0
     330 CNT  1    CNT  C    CA     0.000000   12.01070000        0
     331 CNT  1    CNT  C    CA     0.000000   12.01070000        0
     332 CNT  1    CNT  C    CA     0.000000   12.01070000        0
     333 CNT  1    CNT  C    CA     0.000000   12.01070000        0
     334 CNT  1    CNT  C    CA     0.000000   12.01070000        0
     335 CNT  1    CNT  C    CA     0.000000   12.01070000        0
     336 CNT  1    CNT  C    CA     0.000000   12.01070000        0
     337 CNT  1    CNT  C    CA     0.000000   12.01070000        0
     338 CNT  1    CNT  C    CA     0.000000   12.01070000        0
     339 CNT  1    CNT  C    CA     0.000000   12.01070000        0
     340 CNT  1    CNT  C    CA     0.000000   12.01070000        0
     341 CNT  1    CNT  C    CA     0.000000   12.01070000        0
     342 CNT  1    CNT  C    CA     0.000000   12.01070000        0
     343 CNT  1    CNT  C    CA     0.000000   12.01070000        0
     344 CNT  1    CNT  C    CA     0.000000   12.01070000        0
     345 CNT  1    CNT  C    CA     0.000000   12.01070000        0
     346 CNT  1    CNT  C    CA     0.000000   12.01070000        0
     347 CNT  1    CNT  C    CA     0.000000   12.01070000        0
     348 CNT  1    CNT  C    CA     0.000000   12.01070000        0
     349 CNT  1    CNT  C    CA     0.000000   12.01070000        0
     350 CNT  1    CNT  C    CA     0.000000   12.01070000        0
     351 CNT  1    CNT  C    CA     0.000000   12.01070000        0
     352 CNT  1    CNT  C    CA     0.000000   12.01070000        0
     353 CNT  1    CNT  C    CA     0.000000   12.01070000        0
     354 CNT  1    CNT  O    OX     0.000000   15.99940000        0
     355 CNT  1    CNT  O    OX     0.000000   15.99940000        0
     356 CNT  1    CNT  C    CA     0.000000   12.01070000        0
     357 CNT  1    CNT  C    CA     0.000000   12.01070000        0
     358 CNT  1    CNT  C    CA     0.000000   12.01070000        0
     359 CNT  1    CNT  C    CA     0.000000   12.01070000        0
     360 CNT  1    CNT  C    CA     0.000000   12.01070000        0
     361 CNT  1    CNT  C    CA     0.000000   12.01070000        0
     362 CNT  1    CNT  C    CA     0.000000   12.01070000        0
     363 CNT  1    CNT  C    CA     0.000000   12.01070000        0
     364 CNT  1    CNT  C    CA     0.000000   12.01070000        0
     365 CNT  1    CNT  C    CA     0.000000   12.01070000        0
     366 CNT  1    CNT  C    CA     0.000000   12.01070000        0
     367 CNT  1    CNT  C    CA     0.000000   12.01070000        0
     368 CNT  1    CNT  C    CA     0.000000   12.01070000        0
     369 CNT  1    CNT  C    CA     0.000000   12.01070000        0
     370 CNT  1    CNT  C    CA     0.000000   12.01070000        0
     371 CNT  1    CNT  C    CA     0.000000   12.01070000        0
     372 CNT  1    CNT  C    CA     0.000000   12.01070000        0
     373 CNT  1    CNT  C    CA     0.000000   12.01070000        0
     374 CNT  1    CNT  C    CA     0.000000   12.01070000        0
     375 CNT  1    CNT  C    CA     0.000000   12.01070000        0
     376 CNT  1    CNT  C    CA     0.000000   12.01070000        0
     377 CNT  1    CNT  C    CA     0.000000   12.01070000        0
     378 CNT  1    CNT  C    CA     0.000000   12.01070000        0
     379 CNT  1    CNT  C    CA     0.000000   12.01070000        0
     380 CNT  1    CNT  C    CA     0.000000   12.01070000        0
     381 CNT  1    CNT  C    CA     0.000000   12.01070000        0
     382 CNT  1    CNT  O    OX     0.000000   15.99940000        0
     383 CNT  1    CNT  C    CA     0.000000   12.01070000        0
     384 CNT  1    CNT  C    CA     0.000000   12.01070000        0
     385 CNT  1    CNT  O    OX     0.000000   15.99940000        0
     386 CNT  1    CNT  C    CA     0.000000   12.01070000        0
     387 CNT  1    CNT  C    CA     0.000000   12.01070000        0
     388 CNT  1    CNT  C    CA     0.000000   12.01070000        0
     389 CNT  1    CNT  C    CA     0.000000   12.01070000        0
     390 CNT  1    CNT  C    CA     0.000000   12.01070000        0
     391 CNT  1    CNT  C    CA     0.000000   12.01070000        0
     392 CNT  1    CNT  C    CA     0.000000   12.01070000        0
     393 CNT  1    CNT  C    CA     0.000000   12.01070000        0
     394 CNT  1    CNT  C    CA     0.000000   12.01070000        0
     395 CNT  1    CNT  C    CA     0.000000   12.01070000        0
     396 CNT  1    CNT  C    CA     0.000000   12.01070000        0
     397 CNT  1    CNT  C    CA     0.000000   12.01070000        0
     398 CNT  1    CNT  C    CA     0.000000   12.01070000        0
     399 CNT  1    CNT  C    CA     0.000000   12.01070000        0
     400 CNT  1    CNT  C    CA     0.000000   12.01070000        0
     401 CNT  1    CNT  C    CA     0.000000   12.01070000        0
     402 CNT  1    CNT  C    CA     0.000000   12.01070000        0
     403 CNT  1    CNT  C    CA     0.000000   12.01070000        0
     404 CNT  1    CNT  C    CA     0.000000   12.01070000        0
     405 CNT  1    CNT  C    CA     0.000000   12.01070000        0
     406 CNT  1    CNT  C    CA     0.000000   12.01070000        0
     407 CNT  1    CNT  C    CA     0.000000   12.01070000        0
     408 CNT  1    CNT  C    CA     0.000000   12.01070000        0
     409 CNT  1    CNT  C    CA     0.000000   12.01070000        0
     410 CNT  1    CNT  C    CA     0.000000   12.01070000        0
     411 CNT  1    CNT  C    CA     0.000000   12.01070000        0
     412 CNT  1    CNT  O    OX     0.000000   15.99940000        0
     413 CNT  1    CNT  O    OX     0.000000   15.99940000        0
     414 CNT  1    CNT  C    CA     0.000000   12.01070000        0
     415 CNT  1    CNT  C    CA     0.000000   12.01070000        0
     416 CNT  1    CNT  C    CA     0.000000   12.01070000        0
     417 CNT  1    CNT  C    CA     0.000000   12.01070000        0
     418 CNT  1    CNT  C    CA     0.000000   12.01070000        0
     419 CNT  1    CNT  C    CA     0.000000   12.01070000        0
     420 CNT  1    CNT  C    CA     0.000000   12.01070000        0
     421 CNT  1    CNT  C    CA     0.000000   12.01070000        0
     422 CNT  1    CNT  C    CA     0.000000   12.01070000        0
     423 CNT  1    CNT  C    CA     0.000000   12.01070000        0
     424 CNT  1    CNT  C    CA     0.000000   12.01070000        0
     425 CNT  1    CNT  C    CA     0.000000   12.01070000        0
     426 CNT  1    CNT  C    CA     0.000000   12.01070000        0
     427 CNT  1    CNT  C    CA     0.000000   12.01070000        0
     428 CNT  1    CNT  C    CA     0.000000   12.01070000        0
     429 CNT  1    CNT  C    CA     0.000000   12.01070000        0
     430 CNT  1    CNT  C    CA     0.000000   12.01070000        0
     431 CNT  1    CNT  C    CA     0.000000   12.01070000        0
     432 CNT  1    CNT  C    CA     0.000000   12.01070000        0
     433 CNT  1    CNT  C    CA     0.000000   12.01070000        0
     434 CNT  1    CNT  C    CA     0.000000   12.01070000        0
     435 CNT  1    CNT  C    CA     0.000000   12.01070000        0
     436 CNT  1    CNT  C    CA     0.000000   12.01070000        0
     437 CNT  1    CNT  C    CA     0.000000   12.01070000        0
     438 CNT  1    CNT  C    CA     0.000000   12.01070000        0
     439 CNT  1    CNT  C    CA     0.000000   12.01070000        0
     440 CNT  1    CNT  C    CA     0.000000   12.01070000        0
     441 CNT  1    CNT  C    CA     0.000000   12.01070000        0
     442 CNT  1    CNT  O    OX     0.000000   15.99940000        0
     443 CNT  1    CNT  C    CA     0.000000   12.01070000        0
     444 CNT  1    CNT  C    CA     0.000000   12.01070000        0
     445 CNT  1    CNT  C    CA     0.000000   12.01070000        0
     446 CNT  1    CNT  C    CA     0.000000   12.01070000        0
     447 CNT  1    CNT  C    CA     0.000000   12.01070000        0
     448 CNT  1    CNT  C    CA     0.000000   12.01070000        0
     449 CNT  1    CNT  C    CA     0.000000   12.01070000        0
     450 CNT  1    CNT  C    CA     0.000000   12.01070000        0
     451 CNT  1    CNT  C    CA     0.000000   12.01070000        0
     452 CNT  1    CNT  C    CA     0.000000   12.01070000        0
     453 CNT  1    CNT  C    CA     0.000000   12.01070000        0
     454 CNT  1    CNT  C    CA     0.000000   12.01070000        0
     455 CNT  1    CNT  C    CA     0.000000   12.01070000        0
     456 CNT  1    CNT  C    CA     0.000000   12.01070000        0
     457 CNT  1    CNT  C    CA     0.000000   12.01070000        0
     458 CNT  1    CNT  C    CA     0.000000   12.01070000        0
     459 CNT  1    CNT  C    CA     0.000000   12.01070000        0
     460 CNT  1    CNT  C    CA     0.000000   12.01070000        0
     461 CNT  1    CNT  C    CA     0.000000   12.01070000        0
     462 CNT  1    CNT  C    CA     0.000000   12.01070000        0
     463 CNT  1    CNT  C    CA     0.000000   12.01070000        0
     464 CNT  1    CNT  C    CA     0.000000   12.01070000        0
     465 CNT  1    CNT  C    CA     0.000000   12.01070000        0
     466 CNT  1    CNT  C    CA     0.000000   12.01070000        0
     467 CNT  1    CNT  C    CA     0.000000   12.01070000        0
     468 CNT  1    CNT  C    CA     0.000000   12.01070000        0
     469 CNT  1    CNT  C    CA     0.000000   12.01070000        0
     470 CNT  1    CNT  C    CA     0.000000   12.01070000        0
     471 CNT  1    CNT  C    CA     0.000000   12.01070000        0
     472 CNT  1    CNT  C    CA     0.000000   12.01070000        0
     473 CNT  1    CNT  C    CA     0.000000   12.01070000        0
     474 CNT  1    CNT  C    CA     0.000000   12.01070000        0
     475 CNT  1    CNT  C    CA     0.000000   12.01070000        0
     476 CNT  1    CNT  C    CA     0.000000   12.01070000        0
     477 CNT  1    CNT  C    CA     0.000000   12.01070000        0
     478 CNT  1    CNT  C    CA     0.000000   12.01070000        0
     479 CNT  1    CNT  C    CA     0.000000   12.01070000        0
     480 CNT  1    CNT  C    CA     0.000000   12.01070000        0
     481 CNT  1    CNT  C    CA     0.000000   12.01070000        0
     482 CNT  1    CNT  C    CA     0.000000   12.01070000        0
     483 CNT  1    CNT  C    CA     0.000000   12.01070000        0
     484 CNT  1    CNT  C    CA     0.000000   12.01070000        0
     485 CNT  1    CNT  C    CA     0.000000   12.01070000        0
     486 CNT  1    CNT  C    CA     0.000000   12.01070000        0
     487 CNT  1    CNT  C    CA     0.000000   12.01070000        0
     488 CNT  1    CNT  C    CA     0.000000   12.01070000        0
     489 CNT  1    CNT  C    CA     0.000000   12.01070000        0
     490 CNT  1    CNT  C    CA     0.000000   12.01070000        0
     491 CNT  1    CNT  C    CA     0.000000   12.01070000        0
     492 CNT  1    CNT  C    CA     0.000000   12.01070000        0
     493 CNT  1    CNT  C    CA     0.000000   12.01070000        0
     494 CNT  1    CNT  C    CA     0.000000   12.01070000        0
     495 CNT  1    CNT  C    CA     0.000000   12.01070000        0
     496 CNT  1    CNT  C    CA     0.000000   12.01070000        0
     497 CNT  1    CNT  C    CA     0.000000   12.01070000        0
     498 CNT  1    CNT  C    CA     0.000000   12.01070000        0
     499 CNT  1    CNT  C    CA     0.000000   12.01070000        0
     500 CNT  1    CNT  C    CA     0.000000   12.01070000        0
     501 CNT  1    CNT  C    CA     0.000000   12.01070000        0
     502 CNT  1    CNT  C    CA     0.000000   12.01070000        0
     503 CNT  1    CNT  C    CA     0.000000   12.01070000        0
     504 CNT  1    CNT  C    CA     0.000000   12.01070000        0
     505 CNT  1    CNT  C    CA     0.000000   12.01070000        0
     506 CNT  1    CNT  C    CA     0.000000   12.01070000        0
     507 CNT  1    CNT  C    CA     0.000000   12.01070000        0
     508 CNT  1    CNT  C    CA     0.000000   12.01070000        0
     509 CNT  1    CNT  C    CA     0.000000   12.01070000        0
     510 CNT  1    CNT  C    CA     0.000000   12.01070000        0
     511 CNT  1    CNT  C    CA     0.000000   12.01070000        0
     512 CNT  1    CNT  C    CA     0.000000   12.01070000        0
     513 CNT  1    CNT  C    CA     0.000000   12.01070000        0
     514 CNT  1    CNT  C    CA     0.000000   12.01070000        0
     515 CNT  1    CNT  C    CA     0.000000   12.01070000        0
     516 CNT  1    CNT  C    CA     0.000000   12.01070000        0
     517 CNT  1    CNT  C    CA     0.000000   12.01070000        0
     518 CNT  1    CNT  C    CA     0.000000   12.01070000        0
     519 CNT  1    CNT  C    CA     0.000000   12.01070000        0
     520 CNT  1    CNT  C    CA     0.000000   12.01070000        0
     521 CNT  1    CNT  C    CA     0.000000   12.01070000        0
     522 CNT  1    CNT  C    CA     0.000000   12.01070000        0
     523 CNT  1    CNT  C    CA     0.000000   12.01070000        0
     524 CNT  1    CNT  C    CA     0.000000   12.01070000        0
     525 CNT  1    CNT  C    CA     0.000000   12.01070000        0
     526 CNT  1    CNT  C    CA     0.000000   12.01070000        0
     527 CNT  1    CNT  C    CA     0.000000   12.01070000        0
     528 CNT  1    CNT  C    CA     0.000000   12.01070000        0
     529 CNT  1    CNT  C    CA     0.000000   12.01070000        0
     530 CNT  1    CNT  C    CA     0.000000   12.01070000        0
     531 CNT  1    CNT  C    CA     0.000000   12.01070000        0
     532 CNT  1    CNT  C    CA     0.000000   12.01070000        0
     533 CNT  1    CNT  C    CA     0.000000   12.01070000        0
     534 CNT  1    CNT  C    CA     0.000000   12.01070000        0
     535 CNT  1    CNT  C    CA     0.000000   12.01070000        0
     536 CNT  1    CNT  C    CA     0.000000   12.01070000        0
     537 CNT  1    CNT  C    CA     0.000000   12.01070000        0
     538 CNT  1    CNT  C    CA     0.000000   12.01070000        0
     539 CNT  1    CNT  C    CA     0.000000   12.01070000        0
     540 CNT  1    CNT  C    CA     0.000000   12.01070000        0
     541 CNT  1    CNT  C    CA     0.000000   12.01070000        0
     542 CNT  1    CNT  C    CA     0.000000   12.01070000        0
     543 CNT  1    CNT  C    CA     0.000000   12.01070000        0
     544 CNT  1    CNT  C    CA     0.000000   12.01070000        0
     545 CNT  1    CNT  C    CA     0.000000   12.01070000        0
     546 CNT  1    CNT  C    CA     0.000000   12.01070000        0
     547 CNT  1    CNT  C    CA     0.000000   12.01070000        0
     548 CNT  1    CNT  C    CA     0.000000   12.01070000        0
     549 CNT  1    CNT  C    CA     0.000000   12.01070000        0
     550 CNT  1    CNT  C    CA     0.000000   12.01070000        0
     551 CNT  1    CNT  C    CA     0.000000   12.01070000        0
     552 CNT  1    CNT  C    CA     0.000000   12.01070000        0
     553 CNT  1    CNT  C    CA     0.000000   12.01070000        0
     554 CNT  1    CNT  C    CA     0.000000   12.01070000        0
     555 CNT  1    CNT  C    CA     0.000000   12.01070000        0
     556 CNT  1    CNT  C    CA     0.000000   12.01070000        0
     557 CNT  1    CNT  C    CA     0.000000   12.01070000        0
     558 CNT  1    CNT  C    CA     0.000000   12.01070000        0
     559 CNT  1    CNT  C    CA     0.000000   12.01070000        0
     560 CNT  1    CNT  C    CA     0.000000   12.01070000        0
     561 CNT  1    CNT  C    CA     0.000000   12.01070000        0
     562 CNT  1    CNT  C    CA     0.000000   12.01070000        0
     563 CNT  1    CNT  C    CA     0.000000   12.01070000        0
     564 CNT  1    CNT  C    CA     0.000000   12.01070000        0
     565 CNT  1    CNT  C    CA     0.000000   12.01070000        0
     566 CNT  1    CNT  C    CA     0.000000   12.01070000        0
     567 CNT  1    CNT  C    CA     0.000000   12.01070000        0
     568 CNT  1    CNT  C    CA     0.000000   12.01070000        0
     569 CNT  1    CNT  C    CA     0.000000   12.01070000        0
     570 CNT  1    CNT  C    CA     0.000000   12.01070000        0
     571 CNT  1    CNT  C    CA     0.000000   12.01070000        0
     572 CNT  1    CNT  C    CA     0.000000   12.01070000        0
     573 CNT  1    CNT  C    CA     0.000000   12.01070000        0
     574 CNT  1    CNT  C    CA     0.000000   12.01070000        0
     575 CNT  1    CNT  C    CA     0.000000   12.01070000        0
     576 CNT  1    CNT  C    CA     0.000000   12.01070000        0
     577 CNT  1    CNT  C    CA     0.000000   12.01070000        0
     578 CNT  1    CNT  C    CA     0.000000   12.01070000        0
     579 CNT  1    CNT  C    CA     0.000000   12.01070000        0
     580 CNT  1    CNT  C    CA     0.000000   12.01070000        0
     581 CNT  1    CNT  C    CA     0.000000   12.01070000        0
     582 CNT  1    CNT  C    CA     0.000000   12.01070000        0
     583 CNT  1    CNT  C    CA     0.000000   12.01070000        0
     584 CNT  1    CNT  C    CA     0.000000   12.01070000        0
     585 CNT  1    CNT  C    CA     0.000000   12.01070000        0
     586 CNT  1    CNT  C    CA     0.000000   12.01070000        0
     587 CNT  1    CNT  C    CA     0.000000   12.01070000        0
     588 CNT  1    CNT  C    CA     0.000000   12.01070000        0
     589 CNT  1    CNT  C    CA     0.000000   12.01070000        0
     590 CNT  1    CNT  C    CA     0.000000   12.01070000        0
     591 CNT  1    CNT  C    CA     0.000000   12.01070000        0
     592 CNT  1    CNT  C    CA     0.000000   12.01070000        0
     593 CNT  1    CNT  C    CA     0.000000   12.01070000        0
     594 CNT  1    CNT  C    CA     0.000000   12.01070000        0
     595 CNT  1    CNT  C    CA     0.000000   12.01070000        0
     596 CNT  1    CNT  C    CA     0.000000   12.01070000        0
     597 CNT  1    CNT  C    CA     0.000000   12.01070000        0
     598 CNT  1    CNT  C    CA     0.000000   12.01070000        0
     599 CNT  1    CNT  C    CA     0.000000   12.01070000        0
     600 CNT  1    CNT  C    CA     0.000000   12.01070000        0
     601 CNT  1    CNT  C    CA     0.000000   12.01070000        0
     602 CNT  1    CNT  C    CA     0.000000   12.01070000        0
     603 CNT  1    CNT  C    CA     0.000000   12.01070000        0
     604 CNT  1    CNT  C    CA     0.000000   12.01070000        0
     605 CNT  1    CNT  C    CA     0.000000   12.01070000        0
     606 CNT  1    CNT  C    CA     0.000000   12.01070000        0
     607 CNT  1    CNT  C    CA     0.000000   12.01070000        0
     608 CNT  1    CNT  C    CA     0.000000   12.01070000        0
     609 CNT  1    CNT  C    CA     0.000000   12.01070000        0
     610 CNT  1    CNT  C    CA     0.000000   12.01070000        0
     611 CNT  1    CNT  C    CA     0.000000   12.01070000        0
     612 CNT  1    CNT  C    CA     0.000000   12.01070000        0
     613 CNT  1    CNT  C    CA     0.000000   12.01070000        0
     614 CNT  1    CNT  C    CA     0.000000   12.01070000        0
     615 CNT  1    CNT  C    CA     0.000000   12.01070000        0
     616 CNT  1    CNT  C    CA     0.000000   12.01070000        0
     617 CNT  1    CNT  C    CA     0.000000   12.01070000        0
     618 CNT  1    CNT  C    CA     0.000000   12.01070000        0
     619 CNT  1    CNT  C    CA     0.000000   12.01070000        0
     620 CNT  1    CNT  C    CA     0.000000   12.01070000        0
     621 CNT  1    CNT  C    CA     0.000000   12.01070000        0
     622 CNT  1    CNT  C    CA     0.000000   12.01070000        0
     623 CNT  1    CNT  C    CA     0.000000   12.01070000        0
     624 CNT  1    CNT  C    CA     0.000000   12.01070000        0
     625 CNT  1    CNT  C    CA     0.000000   12.01070000        0
     626 CNT  1    CNT  C    CA     0.000000   12.01070000        0
     627 CNT  1    CNT  C    CA     0.000000   12.01070000        0
     628 CNT  1    CNT  C    CA     0.000000   12.01070000        0
     629 CNT  1    CNT  C    CA     0.000000   12.01070000        0
     630 CNT  1    CNT  C    CA     0.000000   12.01070000        0
     631 CNT  1    CNT  C    CA     0.000000   12.01070000        0
     632 CNT  1    CNT  C    CA     0.000000   12.01070000        0
     633 CNT  1    CNT  C    CA     0.000000   12.01070000        0
     634 CNT  1    CNT  C    CA     0.000000   12.01070000        0
     635 CNT  1    CNT  C    CA     0.000000   12.01070000        0
     636 CNT  1    CNT  C    CA     0.000000   12.01070000        0
     637 CNT  1    CNT  C    CA     0.000000   12.01070000        0
     638 CNT  1    CNT  C    CA     0.000000   12.01070000        0
     639 CNT  1    CNT  C    CA     0.000000   12.01070000        0
     640 CNT  1    CNT  C    CA     0.000000   12.01070000        0
     641 CNT  1    CNT  C    CA     0.000000   12.01070000        0
     642 CNT  1    CNT  C    CA     0.000000   12.01070000        0
     643 CNT  1    CNT  C    CA     0.000000   12.01070000        0
     644 CNT  1    CNT  C    CA     0.000000   12.01070000        0
     645 CNT  1    CNT  C    CA     0.000000   12.01070000        0
     646 CNT  1    CNT  C    CA     0.000000   12.01070000        0
     647 CNT  1    CNT  C    CA     0.000000   12.01070000        0
     648 CNT  1    CNT  C    CA     0.000000   12.01070000        0
     649 CNT  1    CNT  C    CA     0.000000   12.01070000        0
     650 CNT  1    CNT  C    CA     0.000000   12.01070000        0
     651 CNT  1    CNT  C    CA     0.000000   12.01070000        0
     652 CNT  1    CNT  C    CA     0.000000   12.01070000        0
     653 CNT  1    CNT  C    CA     0.000000   12.01070000        0
     654 CNT  1    CNT  C    CA     0.000000   12.01070000        0
     655 CNT  1    CNT  C    CA     0.000000   12.01070000        0
     656 CNT  1    CNT  C    CA     0.000000   12.01070000        0
     657 CNT  1    CNT  C    CA     0.000000   12.01070000        0
     658 CNT  1    CNT  C    CA     0.000000   12.01070000        0
     659 CNT  1    CNT  C    CA     0.000000   12.01070000        0
     660 CNT  1    CNT  C    CA     0.000000   12.01070000        0
     661 CNT  1    CNT  C    CA     0.000000   12.01070000        0
     662 CNT  1    CNT  C    CA     0.000000   12.01070000        0
     663 CNT  1    CNT  C    CA     0.000000   12.01070000        0
     664 CNT  1    CNT  C    CA     0.000000   12.01070000        0
     665 CNT  1    CNT  C    CA     0.000000   12.01070000        0
     666 CNT  1    CNT  C    CA     0.000000   12.01070000        0
     667 CNT  1    CNT  C    CA     0.000000   12.01070000        0
     668 CNT  1    CNT  C    CA     0.000000   12.01070000        0
     669 CNT  1    CNT  C    CA     0.000000   12.01070000        0
     670 CNT  1    CNT  C    CA     0.000000   12.01070000        0
     671 CNT  1    CNT  C    CA     0.000000   12.01070000        0
     672 CNT  1    CNT  C    CA     0.000000   12.01070000        0
     673 CNT  1    CNT  C    CA     0.000000   12.01070000        0
     674 CNT  1    CNT  C    CA     0.000000   12.01070000        0
     675 CNT  1    CNT  C    CA     0.000000   12.01070000        0
     676 CNT  1    CNT  C    CA     0.000000   12.01070000        0
     677 CNT  1    CNT  C    CA     0.000000   12.01070000        0
     678 CNT  1    CNT  C    CA     0.000000   12.01070000        0
     679 CNT  1    CNT  C    CA     0.000000   12.01070000        0
     680 CNT  1    CNT  C    CA     0.000000   12.01070000        0
     681 CNT  1    CNT  C    CA     0.000000   12.01070000        0
     682 CNT  1    CNT  C    CA     0.000000   12.01070000        0
     683 CNT  1    CNT  C    CA     0.000000   12.01070000        0
     684 CNT  1    CNT  C    CA     0.000000   12.01070000        0
     685 CNT  1    CNT  C    CA     0.000000   12.01070000        0
     686 CNT  1    CNT  C    CA     0.000000   12.01070000        0
     687 CNT  1    CNT  C    CA     0.000000   12.01070000        0
     688 CNT  1    CNT  C    CA     0.000000   12.01070000        0
     689 CNT  1    CNT  C    CA     0.000000   12.01070000        0
     690 CNT  1    CNT  C    CA     0.000000   12.01070000        0
     691 CNT  1    CNT  C    CA     0.000000   12.01070000        0
     692 CNT  1    CNT  C    CA     0.000000   12.01070000        0
     693 CNT  1    CNT  C    CA     0.000000   12.01070000        0
     694 CNT  1    CNT  C    CA     0.000000   12.01070000        0
     695 CNT  1    CNT  C    CA     0.000000   12.01070000        0
     696 CNT  1    CNT  C    CA     0.000000   12.01070000        0
     697 CNT  1    CNT  C    CA     0.000000   12.01070000        0
     698 CNT  1    CNT  C    CA     0.000000   12.01070000        0
     699 CNT  1    CNT  C    CA     0.000000   12.01070000        0
     700 CNT  1    CNT  C    CA     0.000000   12.01070000        0
     701 CNT  1    CNT  C    CA     0.000000   12.01070000        0
     702 CNT  1    CNT  C    CA     0.000000   12.01070000        0
     703 CNT  1    CNT  C    CA     0.000000   12.01070000        0
     704 CNT  1    CNT  C    CA     0.000000   12.01070000        0
     705 CNT  1    CNT  C    CA     0.000000   12.01070000        0
     706 CNT  1    CNT  C    CA     0.000000   12.01070000        0
     707 CNT  1    CNT  C    CA     0.000000   12.01070000        0
     708 CNT  1    CNT  C    CA     0.000000   12.01070000        0
     709 CNT  1    CNT  C    CA     0.000000   12.01070000        0
     710 CNT  1    CNT  C    CA     0.000000   12.01070000        0
     711 CNT  1    CNT  C    CA     0.000000   12.01070000        0
     712 CNT  1    CNT  C    CA     0.000000   12.01070000        0
     713 CNT  1    CNT  C    CA     0.000000   12.01070000        0
     714 CNT  1    CNT  C    CA     0.000000   12.01070000        0
     715 CNT  1    CNT  C    CA     0.000000   12.01070000        0
     716 CNT  1    CNT  C    CA     0.000000   12.01070000        0
     717 CNT  1    CNT  C    CA     0.000000   12.01070000        0
     718 CNT  1    CNT  C    CA     0.000000   12.01070000        0
     719 CNT  1    CNT  C    CA     0.000000   12.01070000        0
     720 CNT  1    CNT  C    CA     0.000000   12.01070000        0
     721 CNT  1    CNT  C    CA     0.000000   12.01070000        0
     722 CNT  1    CNT  C    CA     0.000000   12.01070000        0
     723 CNT  1    CNT  C    CA     0.000000   12.01070000        0
     724 CNT  1    CNT  C    CA     0.000000   12.01070000        0
     725 CNT  1    CNT  C    CA     0.000000   12.01070000        0
     726 CNT  1    CNT  C    CA     0.000000   12.01070000        0
     727 CNT  1    CNT  C    CA     0.000000   12.01070000        0
     728 CNT  1    CNT  C    CA     0.000000   12.01070000        0
     729 CNT  1    CNT  C    CA     0.000000   12.01070000        0
     730 CNT  1    CNT  C    CA     0.000000   12.01070000        0
     731 CNT  1    CNT  C    CA     0.000000   12.01070000        0
     732 CNT  1    CNT  C    CA     0.000000   12.01070000        0
     733 CNT  1    CNT  C    CA     0.000000   12.01070000        0
     734 CNT  1    CNT  C    CA     0.000000   12.01070000        0
     735 CNT  1    CNT  C    CA     0.000000   12.01070000        0
     736 CNT  1    CNT  C    CA     0.000000   12.01070000        0
     737 CNT  1    CNT  C    CA     0.000000   12.01070000        0
     738 CNT  1    CNT  C    CA     0.000000   12.01070000        0
     739 CNT  1    CNT  C    CA     0.000000   12.01070000        0
     740 CNT  1    CNT  C    CA     0.000000   12.01070000        0
     741 CNT  1    CNT  C    CA     0.000000   12.01070000        0
     742 CNT  1    CNT  C    CA     0.000000   12.01070000        0
     743 CNT  1    CNT  C    CA     0.000000   12.01070000        0
     744 CNT  1    CNT  C    CA     0.000000   12.01070000        0
     745 CNT  1    CNT  C    CA     0.000000   12.01070000        0
     746 CNT  1    CNT  C    CA     0.000000   12.01070000        0
     747 CNT  1    CNT  C    CA     0.000000   12.01070000        0
     748 CNT  1    CNT  C    CA     0.000000   12.01070000        0
     749 CNT  1    CNT  C    CA     0.000000   12.01070000        0
     750 CNT  1    CNT  C    CA     0.000000   12.01070000        0
     751 CNT  1    CNT  C    CA     0.000000   12.01070000        0
     752 CNT  1    CNT  C    CA     0.000000   12.01070000        0
     753 CNT  1    CNT  C    CA     0.000000   12.01070000        0
     754 CNT  1    CNT  C    CA     0.000000   12.01070000        0
     755 CNT  1    CNT  C    CA     0.000000   12.01070000        0
     756 CNT  1    CNT  C    CA     0.000000   12.01070000        0
     757 CNT  1    CNT  C    CA     0.000000   12.01070000        0
     758 CNT  1    CNT  C    CA     0.000000   12.01070000        0
     759 CNT  1    CNT  C    CA     0.000000   12.01070000        0
     760 CNT  1    CNT  C    CA     0.000000   12.01070000        0
     761 CNT  1    CNT  C    CA     0.000000   12.01070000        0
     762 CNT  1    CNT  C    CA     0.000000   12.01070000        0
     763 CNT  1    CNT  C    CA     0.000000   12.01070000        0
     764 CNT  1    CNT  C    CA     0.000000   12.01070000        0
     765 CNT  1    CNT  C    CA     0.000000   12.01070000        0
     766 CNT  1    CNT  C    CA     0.000000   12.01070000        0
     767 CNT  1    CNT  C    CA     0.000000   12.01070000        0
     768 CNT  1    CNT  C    CA     0.000000   12.01070000        0
     769 CNT  1    CNT  C    CA     0.000000   12.01070000        0
     770 CNT  1    CNT  C    CA     0.000000   12.01070000        0
     771 CNT  1    CNT  C    CA     0.000000   12.01070000        0
     772 CNT  1    CNT  C    CA     0.000000   12.01070000        0
     773 CNT  1    CNT  C    CA     0.000000   12.01070000        0
     774 CNT  1    CNT  C    CA     0.000000   12.01070000        0
     775 CNT  1    CNT  C    CA     0.000000   12.01070000        0
     776 CNT  1    CNT  C    CA     0.000000   12.01070000        0
     777 CNT  1    CNT  C    CA     0.000000   12.01070000        0
     778 CNT  1    CNT  C    CA     0.000000   12.01070000        0
     779 CNT  1    CNT  C    CA     0.000000   12.01070000        0
     780 CNT  1    CNT  C    CA     0.000000   12.01070000        0
     781 CNT  1    CNT  C    CA     0.000000   12.01070000        0
     782 CNT  1    CNT  C    CA     0.000000   12.01070000        0
     783 CNT  1    CNT  C    CA     0.000000   12.01070000        0
     784 CNT  1    CNT  C    CA     0.000000   12.01070000        0
     785 CNT  1    CNT  C    CA     0.000000   12.01070000        0
     786 CNT  1    CNT  C    CA     0.000000   12.01070000        0
     787 CNT  1    CNT  C    CA     0.000000   12.01070000        0
     788 CNT  1    CNT  C    CA     0.000000   12.01070000        0
     789 CNT  1    CNT  C    CA     0.000000   12.01070000        0
     790 CNT  1    CNT  C    CA     0.000000   12.01070000        0
     791 CNT  1    CNT  C    CA     0.000000   12.01070000        0
     792 CNT  1    CNT  C    CA     0.000000   12.01070000        0
     793 CNT  1    CNT  C    CA     0.000000   12.01070000        0
     794 CNT  1    CNT  C    CA     0.000000   12.01070000        0
     795 CNT  1    CNT  C    CA     0.000000   12.01070000        0
     796 CNT  1    CNT  C    CA     0.000000   12.01070000        0
     797 CNT  1    CNT  C    CA     0.000000   12.01070000        0
     798 CNT  1    CNT  C    CA     0.000000   12.01070000        0
     799 CNT  1    CNT  C    CA     0.000000   12.01070000        0
     800 CNT  1    CNT  C    CA     0.000000   12.01070000        0
     801 CNT  1    CNT  C    CA     0.000000   12.01070000        0
     802 CNT  1    CNT  C    CA     0.000000   12.01070000        0
     803 CNT  1    CNT  C    CA     0.000000   12.01070000        0
     804 CNT  1    CNT  C    CA     0.000000   12.01070000        0
     805 CNT  1    CNT  C    CA     0.000000   12.01070000        0
     806 CNT  1    CNT  C    CA     0.000000   12.01070000        0
     807 CNT  1    CNT  C    CA     0.000000   12.01070000        0
     808 CNT  1    CNT  C    CA     0.000000   12.01070000        0
     809 CNT  1    CNT  C    CA     0.000000   12.01070000        0
     810 CNT  1    CNT  C    CA     0.000000   12.01070000        0
     811 CNT  1    CNT  C    CA     0.000000   12.01070000        0
     812 CNT  1    CNT  C    CA     0.000000   12.01070000        0
     813 CNT  1    CNT  C    CA     0.000000   12.01070000        0
     814 CNT  1    CNT  C    CA     0.000000   12.01070000        0
     815 CNT  1    CNT  C    CA     0.000000   12.01070000        0
     816 CNT  1    CNT  C    CA     0.000000   12.01070000        0
     817 CNT  1    CNT  C    CA     0.000000   12.01070000        0
     818 CNT  1    CNT  C    CA     0.000000   12.01070000        0
     819 CNT  1    CNT  C    CA     0.000000   12.01070000        0
     820 CNT  1    CNT  C    CA     0.000000   12.01070000        0
     821 CNT  1    CNT  C    CA     0.000000   12.01070000        0
     822 CNT  1    CNT  C    CA     0.000000   12.01070000        0
     823 CNT  1    CNT  C    CA     0.000000   12.01070000        0
     824 CNT  1    CNT  C    CA     0.000000   12.01070000        0
     825 CNT  1    CNT  C    CA     0.000000   12.01070000        0
     826 CNT  1    CNT  C    CA     0.000000   12.01070000        0
     827 CNT  1    CNT  C    CA     0.000000   12.01070000        0
     828 CNT  1    CNT  C    CA     0.000000   12.01070000        0
     829 CNT  1    CNT  C    CA     0.000000   12.01070000        0
     830 CNT  1    CNT  C    CA     0.000000   12.01070000        0
     831 CNT  1    CNT  C    CA     0.000000   12.01070000        0
     832 CNT  1    CNT  C    CA     0.000000   12.01070000        0
     833 CNT  1    CNT  C    CA     0.000000   12.01070000        0
     834 CNT  1    CNT  C    CA     0.000000   12.01070000        0
     835 CNT  1    CNT  C    CA     0.000000   12.01070000        0
     836 CNT  1    CNT  C    CA     0.000000   12.01070000        0
     837 CNT  1    CNT  C    CA     0.000000   12.01070000        0
     838 CNT  1    CNT  C    CA     0.000000   12.01070000        0
     839 CNT  1    CNT  C    CA     0.000000   12.01070000        0
     840 CNT  1    CNT  C    CA     0.000000   12.01070000        0
     841 CNT  1    CNT  C    CA     0.000000   12.01070000        0
     842 CNT  1    CNT  C    CA     0.000000   12.01070000        0
     843 CNT  1    CNT  C    CA     0.000000   12.01070000        0
     844 CNT  1    CNT  C    CA     0.000000   12.01070000        0
     845 CNT  1    CNT  C    CA     0.000000   12.01070000        0
     846 CNT  1    CNT  C    CA     0.000000   12.01070000        0
     847 CNT  1    CNT  C    CA     0.000000   12.01070000        0
     848 CNT  1    CNT  C    CA     0.000000   12.01070000        0
     849 CNT  1    CNT  C    CA     0.000000   12.01070000        0
     850 CNT  1    CNT  C    CA     0.000000   12.01070000        0
     851 CNT  1    CNT  C    CA     0.000000   12.01070000        0
     852 CNT  1    CNT  C    CA     0.000000   12.01070000        0
     853 CNT  1    CNT  C    CA     0.000000   12.01070000        0
     854 CNT  1    CNT  C    CA     0.000000   12.01070000        0
     855 CNT  1    CNT  C    CA     0.000000   12.01070000        0
     856 CNT  1    CNT  C    CA     0.000000   12.01070000        0
     857 CNT  1    CNT  C    CA     0.000000   12.01070000        0
     858 CNT  1    CNT  C    CA     0.000000   12.01070000        0
     859 CNT  1    CNT  C    CA     0.000000   12.01070000        0
     860 CNT  1    CNT  C    CA     0.000000   12.01070000        0
     861 CNT  1    CNT  C    CA     0.000000   12.01070000        0
     862 CNT  1    CNT  C    CA     0.000000   12.01070000        0
     863 CNT  1    CNT  C    CA     0.000000   12.01070000        0
     864 CNT  1    CNT  C    CA     0.000000   12.01070000        0
     865 CNT  1    CNT  C    CA     0.000000   12.01070000        0
     866 CNT  1    CNT  C    CA     0.000000   12.01070000        0
     867 CNT  1    CNT  C    CA     0.000000   12.01070000        0
     868 CNT  1    CNT  C    CA     0.000000   12.01070000        0
     869 CNT  1    CNT  C    CA     0.000000   12.01070000        0
     870 CNT  1    CNT  C    CA     0.000000   12.01070000        0
     871 CNT  1    CNT  C    CA     0.000000   12.01070000        0
     872 CNT  1    CNT  C    CA     0.000000   12.01070000        0
     873 CNT  1    CNT  C    CA     0.000000   12.01070000        0
     874 CNT  1    CNT  C    CA     0.000000   12.01070000        0
     875 CNT  1    CNT  C    CA     0.000000   12.01070000        0
     876 CNT  1    CNT  C    CA     0.000000   12.01070000        0
     877 CNT  1    CNT  C    CA     0.000000   12.01070000        0
     878 CNT  1    CNT  C    CA     0.000000   12.01070000        0
     879 CNT  1    CNT  C    CA     0.000000   12.01070000        0
     880 CNT  1    CNT  C    CA     0.000000   12.01070000        0
     881 CNT  1    CNT  C    CA     0.000000   12.01070000        0
     882 CNT  1    CNT  C    CA     0.000000   12.01070000        0
     883 CNT  1    CNT  C    CA     0.000000   12.01070000        0
     884 CNT  1    CNT  C    CA     0.000000   12.01070000        0
     885 CNT  1    CNT  C    CA     0.000000   12.01070000        0
     886 CNT  1    CNT  C    CA     0.000000   12.01070000        0
     887 CNT  1    CNT  C    CA     0.000000   12.01070000        0
     888 CNT  1    CNT  C    CA     0.000000   12.01070000        0
     889 CNT  1    CNT  C    CA     0.000000   12.01070000        0
     890 CNT  1    CNT  C    CA     0.000000   12.01070000        0
     891 CNT  1    CNT  C    CA     0.000000   12.01070000        0
     892 CNT  1    CNT  C    CA     0.000000   12.01070000        0
     893 CNT  1    CNT  C    CA     0.000000   12.01070000        0
     894 CNT  1    CNT  C    CA     0.000000   12.01070000        0
     895 CNT  1    CNT  C    CA     0.000000   12.01070000        0
     896 CNT  1    CNT  C    CA     0.000000   12.01070000        0
     897 CNT  1    CNT  C    CA     0.000000   12.01070000        0
     898 CNT  1    CNT  C    CA     0.000000   12.01070000        0
     899 CNT  1    CNT  C    CA     0.000000   12.01070000        0
     900 CNT  1    CNT  C    CA     0.000000   12.01070000        0
     901 CNT  1    CNT  C    CA     0.000000   12.01070000        0
     902 CNT  1    CNT  C    CA     0.000000   12.01070000        0
     903 CNT  1    CNT  C    CA     0.000000   12.01070000        0
     904 CNT  1    CNT  C    CA     0.000000   12.01070000        0
     905 CNT  1    CNT  C    CA     0.000000   12.01070000        0
     906 CNT  1    CNT  C    CA     0.000000   12.01070000        0
     907 CNT  1    CNT  C    CA     0.000000   12.01070000        0
     908 CNT  1    CNT  C    CA     0.000000   12.01070000        0
     909 CNT  1    CNT  C    CA     0.000000   12.01070000        0
     910 CNT  1    CNT  C    CA     0.000000   12.01070000        0
     911 CNT  1    CNT  C    CA     0.000000   12.01070000        0
     912 CNT  1    CNT  C    CA     0.000000   12.01070000        0
     913 CNT  1    CNT  C    CA     0.000000   12.01070000        0
     914 CNT  1    CNT  C    CA     0.000000   12.01070000        0
     915 CNT  1    CNT  C    CA     0.000000   12.01070000        0
     916 CNT  1    CNT  C    CA     0.000000   12.01070000        0
     917 CNT  1    CNT  C    CA     0.000000   12.01070000        0
     918 CNT  1    CNT  C    CA     0.000000   12.01070000        0
     919 CNT  1    CNT  C    CA     0.000000   12.01070000        0
     920 CNT  1    CNT  C    CA     0.000000   12.01070000        0
     921 CNT  1    CNT  C    CA     0.000000   12.01070000        0
     922 CNT  1    CNT  C    CA     0.000000   12.01070000        0
     923 CNT  1    CNT  C    CA     0.000000   12.01070000        0
     924 CNT  1    CNT  C    CA     0.000000   12.01070000        0
     925 CNT  1    CNT  C    CA     0.000000   12.01070000        0
     926 CNT  1    CNT  C    CA     0.000000   12.01070000        0
     927 CNT  1    CNT  C    CA     0.000000   12.01070000        0
     928 CNT  1    CNT  C    CA     0.000000   12.01070000        0
     929 CNT  1    CNT  C    CA     0.000000   12.01070000        0
     930 CNT  1    CNT  C    CA     0.000000   12.01070000        0
     931 CNT  1    CNT  C    CA     0.000000   12.01070000        0
     932 CNT  1    CNT  C    CA     0.000000   12.01070000        0
     933 CNT  1    CNT  C    CA     0.000000   12.01070000        0
     934 CNT  1    CNT  C    CA     0.000000   12.01070000        0
     935 CNT  1    CNT  C    CA     0.000000   12.01070000        0
     936 CNT  1    CNT  C    CA     0.000000   12.01070000        0
     937 CNT  1    CNT  C    CA     0.000000   12.01070000        0
     938 CNT  1    CNT  C    CA     0.000000   12.01070000        0
     939 CNT  1    CNT  C    CA     0.000000   12.01070000        0
     940 CNT  1    CNT  C    CA     0.000000   12.01070000        0
     941 CNT  1    CNT  C    CA     0.000000   12.01070000        0
     942 CNT  1    CNT  C    CA     0.000000   12.01070000        0
     943 CNT  1    CNT  C    CA     0.000000   12.01070000        0
     944 CNT  1    CNT  C    CA     0.000000   12.01070000        0
     945 CNT  1    CNT  C    CA     0.000000   12.01070000        0
     946 CNT  1    CNT  C    CA     0.000000   12.01070000        0
     947 CNT  1    CNT  C    CA     0.000000   12.01070000        0
     948 CNT  1    CNT  C    CA     0.000000   12.01070000        0
     949 CNT  1    CNT  C    CA     0.000000   12.01070000        0
     950 CNT  1    CNT  C    CA     0.000000   12.01070000        0
     951 CNT  1    CNT  C    CA     0.000000   12.01070000        0
     952 CNT  1    CNT  C    CA     0.000000   12.01070000        0
     953 CNT  1    CNT  C    CA     0.000000   12.01070000        0
     954 CNT  1    CNT  C    CA     0.000000   12.01070000        0
     955 CNT  1    CNT  C    CA     0.000000   12.01070000        0
     956 CNT  1    CNT  C    CA     0.000000   12.01070000        0
     957 CNT  1    CNT  C    CA     0.000000   12.01070000        0
     958 CNT  1    CNT  C    CA     0.000000   12.01070000        0
     959 CNT  1    CNT  C    CA     0.000000   12.01070000        0
     960 CNT  1    CNT  C    CA     0.000000   12.01070000        0
     961 CNT  1    CNT  C    CA     0.000000   12.01070000        0
     962 CNT  1    CNT  C    CA     0.000000   12.01070000        0
     963 CNT  1    CNT  C    CA     0.000000   12.01070000        0
     964 CNT  1    CNT  C    CA     0.000000   12.01070000        0
     965 CNT  1    CNT  C    CA     0.000000   12.01070000        0
     966 CNT  1    CNT  C    CA     0.000000   12.01070000        0
     967 CNT  1    CNT  C    CA     0.000000   12.01070000        0
     968 CNT  1    CNT  C    CA     0.000000   12.01070000        0
     969 CNT  1    CNT  C    CA     0.000000   12.01070000        0
     970 CNT  1    CNT  C    CA     0.000000   12.01070000        0
     971 CNT  1    CNT  C    CA     0.000000   12.01070000        0
     972 CNT  1    CNT  C    CA     0.000000   12.01070000        0
     973 CNT  1    CNT  C    CA     0.000000   12.01070000        0
     974 CNT  1    CNT  C    CA     0.000000   12.01070000        0
     975 CNT  1    CNT  C    CA     0.000000   12.01070000        0
     976 CNT  1    CNT  C    CA     0.000000   12.01070000        0
     977 CNT  1    CNT  C    CA     0.000000   12.01070000        0
     978 CNT  1    CNT  O    OX     0.000000   15.99940000        0
     979 CNT  1    CNT  C    CA     0.000000   12.01070000        0
     980 CNT  1    CNT  C    CA     0.000000   12.01070000        0
     981 CNT  1    CNT  O    OX     0.000000   15.99940000        0
     982 CNT  1    CNT  C    CA     0.000000   12.01070000        0
     983 CNT  1    CNT  C    CA     0.000000   12.01070000        0
     984 CNT  1    CNT  C    CA     0.000000   12.01070000        0
     985 CNT  1    CNT  C    CA     0.000000   12.01070000        0
     986 CNT  1    CNT  C    CA     0.000000   12.01070000        0
     987 CNT  1    CNT  C    CA     0.000000   12.01070000        0
     988 CNT  1    CNT  C    CA     0.000000   12.01070000        0
     989 CNT  1    CNT  C    CA     0.000000   12.01070000        0
     990 CNT  1    CNT  C    CA     0.000000   12.01070000        0
     991 CNT  1    CNT  C    CA     0.000000   12.01070000        0
     992 CNT  1    CNT  C    CA     0.000000   12.01070000        0
     993 CNT  1    CNT  C    CA     0.000000   12.01070000        0
     994 CNT  1    CNT  C    CA     0.000000   12.01070000        0
     995 CNT  1    CNT  C    CA     0.000000   12.01070000        0
     996 CNT  1    CNT  C    CA     0.000000   12.01070000        0
     997 CNT  1    CNT  C    CA     0.000000   12.01070000        0
     998 CNT  1    CNT  C    CA     0.000000   12.01070000        0
     999 CNT  1    CNT  C    CA     0.000000   12.01070000        0
    1000 CNT  1    CNT  C    CA     0.000000   12.01070000        0
    1001 CNT  1    CNT  C    CA     0.000000   12.01070000        0
    1002 CNT  1    CNT  C    CA     0.000000   12.01070000        0
    1003 CNT  1    CNT  C    CA     0.000000   12.01070000        0
    1004 CNT  1    CNT  C    CA     0.000000   12.01070000        0
    1005 CNT  1    CNT  C    CA     0.000000   12.01070000        0
    1006 CNT  1    CNT  C    CA     0.000000   12.01070000        0
    1007 CNT  1    CNT  C    CA     0.000000   12.01070000        0
    1008 CNT  1    CNT  O    OX     0.000000   15.99940000        0
    1009 CNT  1    CNT  O    OX     0.000000   15.99940000        0
    1010 CNT  1    CNT  C    CA     0.000000   12.01070000        0
    1011 CNT  1    CNT  C    CA     0.000000   12.01070000        0
    1012 CNT  1    CNT  C    CA     0.000000   12.01070000        0
    1013 CNT  1    CNT  C    CA     0.000000   12.01070000        0
    1014 CNT  1    CNT  C    CA     0.000000   12.01070000        0
    1015 CNT  1    CNT  C    CA     0.000000   12.01070000        0
    1016 CNT  1    CNT  C    CA     0.000000   12.01070000        0
    1017 CNT  1    CNT  C    CA     0.000000   12.01070000        0
    1018 CNT  1    CNT  C    CA     0.000000   12.01070000        0
    1019 CNT  1    CNT  C    CA     0.000000   12.01070000        0
    1020 CNT  1    CNT  C    CA     0.000000   12.01070000        0
    1021 CNT  1    CNT  C    CA     0.000000   12.01070000        0
    1022 CNT  1    CNT  C    CA     0.000000   12.01070000        0
    1023 CNT  1    CNT  C    CA     0.000000   12.01070000        0
    1024 CNT  1    CNT  C    CA     0.000000   12.01070000        0
    1025 CNT  1    CNT  C    CA     0.000000   12.01070000        0
    1026 CNT  1    CNT  C    CA     0.000000   12.01070000        0
    1027 CNT  1    CNT  C    CA     0.000000   12.01070000        0
    1028 CNT  1    CNT  C    CA     0.000000   12.01070000        0
    1029 CNT  1    CNT  C    CA     0.000000   12.01070000        0
    1030 CNT  1    CNT  C    CA     0.000000   12.01070000        0
    1031 CNT  1    CNT  C    CA     0.000000   12.01070000        0
    1032 CNT  1    CNT  C    CA     0.000000   12.01070000        0
    1033 CNT  1    CNT  C    CA     0.000000   12.01070000        0
    1034 CNT  1    CNT  C    CA     0.000000   12.01070000        0
    1035 CNT  1    CNT  C    CA     0.000000   12.01070000        0
    1036 CNT  1    CNT  C    CA     0.000000   12.01070000        0
    1037 CNT  1    CNT  C    CA     0.000000   12.01070000        0
    1038 CNT  1    CNT  O    OX     0.000000   15.99940000        0
    1039 CNT  1    CNT  O    OX     0.000000   15.99940000        0
    1040 CNT  1    CNT  C    CA     0.000000   12.01070000        0
    1041 CNT  1    CNT  C    CA     0.000000   12.01070000        0
    1042 CNT  1    CNT  C    CA     0.000000   12.01070000        0
    1043 CNT  1    CNT  C    CA     0.000000   12.01070000        0
    1044 CNT  1    CNT  C    CA     0.000000   12.01070000        0
    1045 CNT  1    CNT  C    CA     0.000000   12.01070000        0
    1046 CNT  1    CNT  C    CA     0.000000   12.01070000        0
    1047 CNT  1    CNT  C    CA     0.000000   12.01070000        0
    1048 CNT  1    CNT  C    CA     0.000000   12.01070000        0
    1049 CNT  1    CNT  C    CA     0.000000   12.01070000        0
    1050 CNT  1    CNT  C    CA     0.000000   12.01070000        0
    1051 CNT  1    CNT  C    CA     0.000000   12.01070000        0
    1052 CNT  1    CNT  C    CA     0.000000   12.01070000        0
    1053 CNT  1    CNT  C    CA     0.000000   12.01070000        0
    1054 CNT  1    CNT  C    CA     0.000000   12.01070000        0
    1055 CNT  1    CNT  C    CA     0.000000   12.01070000        0
    1056 CNT  1    CNT  C    CA     0.000000   12.01070000        0
    1057 CNT  1    CNT  C    CA     0.000000   12.01070000        0
    1058 CNT  1    CNT  C    CA     0.000000   12.01070000        0
    1059 CNT  1    CNT  C    CA     0.000000   12.01070000        0
    1060 CNT  1    CNT  C    CA     0.000000   12.01070000        0
    1061 CNT  1    CNT  C    CA     0.000000   12.01070000        0
    1062 CNT  1    CNT  C    CA     0.000000   12.01070000        0
    1063 CNT  1    CNT  C    CA     0.000000   12.01070000        0
    1064 CNT  1    CNT  C    CA     0.000000   12.01070000        0
    1065 CNT  1    CNT  O    OX     0.000000   15.99940000        0
    1066 CNT  1    CNT  O    OX     0.000000   15.99940000        0
    1067 CNT  1    CNT  C    CA     0.000000   12.01070000        0
    1068 CNT  1    CNT  C    CA     0.000000   12.01070000        0
    1069 CNT  1    CNT  C    CA     0.000000   12.01070000        0
    1070 CNT  1    CNT  C    CA     0.000000   12.01070000        0
    1071 CNT  1    CNT  C    CA     0.000000   12.01070000        0
    1072 CNT  1    CNT  C    CA     0.000000   12.01070000        0
    1073 CNT  1    CNT  C    CA     0.000000   12.01070000        0
    1074 CNT  1    CNT  C    CA     0.000000   12.01070000        0
    1075 CNT  1    CNT  C    CA     0.000000   12.01070000        0
    1076 CNT  1    CNT  C    CA     0.000000   12.01070000        0
    1077 CNT  1    CNT  C    CA     0.000000   12.01070000        0
    1078 CNT  1    CNT  C    CA     0.000000   12.01070000        0
    1079 CNT  1    CNT  C    CA     0.000000   12.01070000        0
    1080 CNT  1    CNT  C    CA     0.000000   12.01070000        0
    1081 CNT  1    CNT  C    CA     0.000000   12.01070000        0
    1082 CNT  1    CNT  C    CA     0.000000   12.01070000        0
    1083 CNT  1    CNT  C    CA     0.000000   12.01070000        0
    1084 CNT  1    CNT  C    CA     0.000000   12.01070000        0
    1085 CNT  1    CNT  C    CA     0.000000   12.01070000        0
    1086 CNT  1    CNT  C    CA     0.000000   12.01070000        0
    1087 CNT  1    CNT  C    CA     0.000000   12.01070000        0
    1088 CNT  1    CNT  C    CA     0.000000   12.01070000        0
    1089 CNT  1    CNT  C    CA     0.000000   12.01070000        0
    1090 CNT  1    CNT  C    CA     0.000000   12.01070000        0
    1091 CNT  1    CNT  O    OX     0.000000   15.99940000        0
    1092 CNT  1    CNT  O    OX     0.000000   15.99940000        0
    1093 CNT  1    CNT  C    CA     0.000000   12.01070000        0
    1094 CNT  1    CNT  C    CA     0.000000   12.01070000        0
    1095 CNT  1    CNT  C    CA     0.000000   12.01070000        0
    1096 CNT  1    CNT  C    CA     0.000000   12.01070000        0
    1097 CNT  1    CNT  C    CA     0.000000   12.01070000        0
    1098 CNT  1    CNT  C    CA     0.000000   12.01070000        0
    1099 CNT  1    CNT  C    CA     0.000000   12.01070000        0
    1100 CNT  1    CNT  C    CA     0.000000   12.01070000        0
    1101 CNT  1    CNT  C    CA     0.000000   12.01070000        0
    1102 CNT  1    CNT  C    CA     0.000000   12.01070000        0
    1103 CNT  1    CNT  C    CA     0.000000   12.01070000        0
    1104 CNT  1    CNT  C    CA     0.000000   12.01070000        0
    1105 CNT  1    CNT  C    CA     0.000000   12.01070000        0
    1106 CNT  1    CNT  C    CA     0.000000   12.01070000        0
    1107 CNT  1    CNT  C    CA     0.000000   12.01070000        0
    1108 CNT  1    CNT  C    CA     0.000000   12.01070000        0
    1109 CNT  1    CNT  C    CA     0.000000   12.01070000        0
    1110 CNT  1    CNT  C    CA     0.000000   12.01070000        0
    1111 CNT  1    CNT  C    CA     0.000000   12.01070000        0
    1112 CNT  1    CNT  C    CA     0.000000   12.01070000        0
    1113 CNT  1    CNT  C    CA     0.000000   12.01070000        0
    1114 CNT  1    CNT  C    CA     0.000000   12.01070000        0
    1115 CNT  1    CNT  C    CA     0.000000   12.01070000        0
    1116 CNT  1    CNT  C    CA     0.000000   12.01070000        0
    1117 CNT  1    CNT  C    CA     0.000000   12.01070000        0
    1118 CNT  1    CNT  C    CA     0.000000   12.01070000        0
    1119 CNT  1    CNT  O    OX     0.000000   15.99940000        0
    1120 CNT  1    CNT  O    OX     0.000000   15.99940000        0
    1121 CNT  1    CNT  C    CA     0.000000   12.01070000        0
    1122 CNT  1    CNT  C    CA     0.000000   12.01070000        0
    1123 CNT  1    CNT  C    CA     0.000000   12.01070000        0
    1124 CNT  1    CNT  C    CA     0.000000   12.01070000        0
    1125 CNT  1    CNT  C    CA     0.000000   12.01070000        0
    1126 CNT  1    CNT  C    CA     0.000000   12.01070000        0
    1127 CNT  1    CNT  C    CA     0.000000   12.01070000        0
    1128 CNT  1    CNT  C    CA     0.000000   12.01070000        0
    1129 CNT  1    CNT  C    CA     0.000000   12.01070000        0
    1130 CNT  1    CNT  C    CA     0.000000   12.01070000        0
    1131 CNT  1    CNT  C    CA     0.000000   12.01070000        0
    1132 CNT  1    CNT  C    CA     0.000000   12.01070000        0
    1133 CNT  1    CNT  C    CA     0.000000   12.01070000        0
    1134 CNT  1    CNT  C    CA     0.000000   12.01070000        0
    1135 CNT  1    CNT  C    CA     0.000000   12.01070000        0
    1136 CNT  1    CNT  C    CA     0.000000   12.01070000        0
    1137 CNT  1    CNT  C    CA     0.000000   12.01070000        0
    1138 CNT  1    CNT  C    CA     0.000000   12.01070000        0
    1139 CNT  1    CNT  C    CA     0.000000   12.01070000        0
    1140 CNT  1    CNT  C    CA     0.000000   12.01070000        0
    1141 CNT  1    CNT  C    CA     0.000000   12.01070000        0
    1142 CNT  1    CNT  C    CA     0.000000   12.01070000        0
    1143 CNT  1    CNT  C    CA     0.000000   12.01070000        0
    1144 CNT  1    CNT  C    CA     0.000000   12.01070000        0
    1145 CNT  1    CNT  C    CA     0.000000   12.01070000        0
    1146 CNT  1    CNT  O    OX     0.000000   15.99940000        0
    1147 CNT  1    CNT  O    OX     0.000000   15.99940000        0
    1148 CNT  1    CNT  C    CA     0.000000   12.01070000        0
    1149 CNT  1    CNT  C    CA     0.000000   12.01070000        0
    1150 CNT  1    CNT  C    CA     0.000000   12.01070000        0
    1151 CNT  1    CNT  C    CA     0.000000   12.01070000        0
    1152 CNT  1    CNT  C    CA     0.000000   12.01070000        0
    1153 CNT  1    CNT  C    CA     0.000000   12.01070000        0
    1154 CNT  1    CNT  C    CA     0.000000   12.01070000        0
    1155 CNT  1    CNT  C    CA     0.000000   12.01070000        0
    1156 CNT  1    CNT  C    CA     0.000000   12.01070000        0
    1157 CNT  1    CNT  C    CA     0.000000   12.01070000        0
    1158 CNT  1    CNT  C    CA     0.000000   12.01070000        0
    1159 CNT  1    CNT  C    CA     0.000000   12.01070000        0
    1160 CNT  1    CNT  C    CA     0.000000   12.01070000        0
    1161 CNT  1    CNT  C    CA     0.000000   12.01070000        0
    1162 CNT  1    CNT  C    CA     0.000000   12.01070000        0
    1163 CNT  1    CNT  C    CA     0.000000   12.01070000        0
    1164 CNT  1    CNT  C    CA     0.000000   12.01070000        0
    1165 CNT  1    CNT  C    CA     0.000000   12.01070000        0
    1166 CNT  1    CNT  C    CA     0.000000   12.01070000        0
    1167 CNT  1    CNT  C    CA     0.000000   12.01070000        0
    1168 CNT  1    CNT  C    CA     0.000000   12.01070000        0
    1169 CNT  1    CNT  C    CA     0.000000   12.01070000        0
    1170 CNT  1    CNT  C    CA     0.000000   12.01070000        0
    1171 CNT  1    CNT  C    CA     0.000000   12.01070000        0
    1172 CNT  1    CNT  C    CA     0.000000   12.01070000        0
    1173 CNT  1    CNT  C    CA     0.000000   12.01070000        0
    1174 CNT  1    CNT  O    OX     0.000000   15.99940000        0
    1175 CNT  1    CNT  C    CA     0.000000   12.01070000        0
    1176 CNT  1    CNT  C    CA     0.000000   12.01070000        0
    1177 CNT  1    CNT  O    OX     0.000000   15.99940000        0
    1178 CNT  1    CNT  C    CA     0.000000   12.01070000        0
    1179 CNT  1    CNT  C    CA     0.000000   12.01070000        0
    1180 CNT  1    CNT  C    CA     0.000000   12.01070000        0
    1181 CNT  1    CNT  C    CA     0.000000   12.01070000        0
    1182 CNT  1    CNT  C    CA     0.000000   12.01070000        0
    1183 CNT  1    CNT  C    CA     0.000000   12.01070000        0
    1184 CNT  1    CNT  C    CA     0.000000   12.01070000        0
    1185 CNT  1    CNT  C    CA     0.000000   12.01070000        0
    1186 CNT  1    CNT  C    CA     0.000000   12.01070000        0
    1187 CNT  1    CNT  C    CA     0.000000   12.01070000        0
    1188 CNT  1    CNT  C    CA     0.000000   12.01070000        0
    1189 CNT  1    CNT  C    CA     0.000000   12.01070000        0
    1190 CNT  1    CNT  C    CA     0.000000   12.01070000        0
    1191 CNT  1    CNT  C    CA     0.000000   12.01070000        0
    1192 CNT  1    CNT  C    CA     0.000000   12.01070000        0
    1193 CNT  1    CNT  C    CA     0.000000   12.01070000        0
    1194 CNT  1    CNT  C    CA     0.000000   12.01070000        0
    1195 CNT  1    CNT  C    CA     0.000000   12.01070000        0
    1196 CNT  1    CNT  C    CA     0.000000   12.01070000        0
    1197 CNT  1    CNT  C    CA     0.000000   12.01070000        0
    1198 CNT  1    CNT  C    CA     0.000000   12.01070000        0
    1199 CNT  1    CNT  C    CA     0.000000   12.01070000        0
    1200 CNT  1    CNT  C    CA     0.000000   12.01070000        0
    1201 CNT  1    CNT  C    CA     0.000000   12.01070000        0
    1202 CNT  1    CNT  C    CA     0.000000   12.01070000        0
    1203 CNT  1    CNT  C    CA     0.000000   12.01070000        0
    1204 CNT  1    CNT  C    CA     0.000000   12.01070000        0
    1205 CNT  1    CNT  C    CA     0.000000   12.01070000        0
    1206 CNT  1    CNT  O    OX     0.000000   15.99940000        0
    1207 CNT  1    CNT  C    CA     0.000000   12.01070000        0
    1208 CNT  1    CNT  C    CA     0.000000   12.01070000        0
    1209 CNT  1    CNT  O    OX     0.000000   15.99940000        0
    1210 CNT  1    CNT  C    CA     0.000000   12.01070000        0
    1211 CNT  1    CNT  C    CA     0.000000   12.01070000        0
    1212 CNT  1    CNT  C    CA     0.000000   12.01070000        0
    1213 CNT  1    CNT  C    CA     0.000000   12.01070000        0
    1214 CNT  1    CNT  C    CA     0.000000   12.01070000        0
    1215 CNT  1    CNT  C    CA     0.000000   12.01070000        0
    1216 CNT  1    CNT  C    CA     0.000000   12.01070000        0
    1217 CNT  1    CNT  C    CA     0.000000   12.01070000        0
    1218 CNT  1    CNT  C    CA     0.000000   12.01070000        0
    1219 CNT  1    CNT  C    CA     0.000000   12.01070000        0
    1220 CNT  1    CNT  C    CA     0.000000   12.01070000        0
    1221 CNT  1    CNT  C    CA     0.000000   12.01070000        0
    1222 CNT  1    CNT  C    CA     0.000000   12.01070000        0
    1223 CNT  1    CNT  C    CA     0.000000   12.01070000        0
    1224 CNT  1    CNT  C    CA     0.000000   12.01070000        0
    1225 CNT  1    CNT  C    CA     0.000000   12.01070000        0
    1226 CNT  1    CNT  C    CA     0.000000   12.01070000        0
    1227 CNT  1    CNT  C    CA     0.000000   12.01070000        0
    1228 CNT  1    CNT  C    CA     0.000000   12.01070000        0
    1229 CNT  1    CNT  C    CA     0.000000   12.01070000        0
    1230 CNT  1    CNT  C    CA     0.000000   12.01070000        0
    1231 CNT  1    CNT  C    CA     0.000000   12.01070000        0
    1232 CNT  1    CNT  C    CA     0.000000   12.01070000        0
    1233 CNT  1    CNT  C    CA     0.000000   12.01070000        0
    1234 CNT  1    CNT  C    CA     0.000000   12.01070000        0
    1235 CNT  1    CNT  C    CA     0.000000   12.01070000        0
    1236 CNT  1    CNT  C    CA     0.000000   12.01070000        0
    1237 CNT  1    CNT  C    CA     0.000000   12.01070000        0
    1238 CNT  1    CNT  C    CA     0.000000   12.01070000        0
    1239 CNT  1    CNT  C    CA     0.000000   12.01070000        0
    1240 CNT  1    CNT  C    CA     0.000000   12.01070000        0
    1241 CNT  1    CNT  C    CA     0.000000   12.01070000        0
    1242 CNT  1    CNT  C    CA     0.000000   12.01070000        0
    1243 CNT  1    CNT  C    CA     0.000000   12.01070000        0
    1244 CNT  1    CNT  C    CA     0.000000   12.01070000        0
    1245 CNT  1    CNT  C    CA     0.000000   12.01070000        0
    1246 CNT  1    CNT  C    CA     0.000000   12.01070000        0
    1247 CNT  1    CNT  C    CA     0.000000   12.01070000        0
    1248 CNT  1    CNT  C    CA     0.000000   12.01070000        0
    1249 CNT  1    CNT  C    CA     0.000000   12.01070000        0
    1250 CNT  1    CNT  C    CA     0.000000   12.01070000        0
    1251 CNT  1    CNT  C    CA     0.000000   12.01070000        0
    1252 CNT  1    CNT  C    CA     0.000000   12.01070000        0
    1253 CNT  1    CNT  C    CA     0.000000   12.01070000        0
    1254 CNT  1    CNT  C    CA     0.000000   12.01070000        0
    1255 CNT  1    CNT  C    CA     0.000000   12.01070000        0
    1256 CNT  1    CNT  C    CA     0.000000   12.01070000        0
    1257 CNT  1    CNT  C    CA     0.000000   12.01070000        0
    1258 CNT  1    CNT  C    CA     0.000000   12.01070000        0
    1259 CNT  1    CNT  C    CA     0.000000   12.01070000        0
    1260 CNT  1    CNT  C    CA     0.000000   12.01070000        0
    1261 CNT  1    CNT  C    CA     0.000000   12.01070000        0
    1262 CNT  1    CNT  C    CA     0.000000   12.01070000        0
    1263 CNT  1    CNT  C    CA     0.000000   12.01070000        0
    1264 CNT  1    CNT  C    CA     0.000000   12.01070000        0
    1265 CNT  1    CNT  C    CA     0.000000   12.01070000        0
    1266 CNT  1    CNT  C    CA     0.000000   12.01070000        0
    1267 CNT  1    CNT  C    CA     0.000000   12.01070000        0
    1268 CNT  1    CNT  C    CA     0.000000   12.01070000        0
    1269 CNT  1    CNT  C    CA     0.000000   12.01070000        0
    1270 CNT  1    CNT  C    CA     0.000000   12.01070000        0
    1271 CNT  1    CNT  C    CA     0.000000   12.01070000        0
    1272 CNT  1    CNT  C    CA     0.000000   12.01070000        0
    1273 CNT  1    CNT  C    CA     0.000000   12.01070000        0
    1274 CNT  1    CNT  C    CA     0.000000   12.01070000        0
    1275 CNT  1    CNT  C    CA     0.000000   12.01070000        0
    1276 CNT  1    CNT  C    CA     0.000000   12.01070000        0
    1277 CNT  1    CNT  C    CA     0.000000   12.01070000        0
    1278 CNT  1    CNT  C    CA     0.000000   12.01070000        0
    1279 CNT  1    CNT  C    CA     0.000000   12.01070000        0
    1280 CNT  1    CNT  C    CA     0.000000   12.01070000        0
    1281 CNT  1    CNT  C    CA     0.000000   12.01070000        0
    1282 CNT  1    CNT  C    CA     0.000000   12.01070000        0
    1283 CNT  1    CNT  C    CA     0.000000   12.01070000        0
    1284 CNT  1    CNT  C    CA     0.000000   12.01070000        0
    1285 CNT  1    CNT  C    CA     0.000000   12.01070000        0
    1286 CNT  1    CNT  C    CA     0.000000   12.01070000        0
    1287 CNT  1    CNT  C    CA     0.000000   12.01070000        0
    1288 CNT  1    CNT  C    CA     0.000000   12.01070000        0
    1289 CNT  1    CNT  C    CA     0.000000   12.01070000        0
    1290 CNT  1    CNT  C    CA     0.000000   12.01070000        0
    1291 CNT  1    CNT  C    CA     0.000000   12.01070000        0
    1292 CNT  1    CNT  C    CA     0.000000   12.01070000        0
    1293 CNT  1    CNT  C    CA     0.000000   12.01070000        0
    1294 CNT  1    CNT  C    CA     0.000000   12.01070000        0
    1295 CNT  1    CNT  C    CA     0.000000   12.01070000        0
    1296 CNT  1    CNT  C    CA     0.000000   12.01070000        0
    1297 CNT  1    CNT  C    CA     0.000000   12.01070000        0
    1298 CNT  1    CNT  C    CA     0.000000   12.01070000        0
    1299 CNT  1    CNT  C    CA     0.000000   12.01070000        0
    1300 CNT  1    CNT  C    CA     0.000000   12.01070000        0
    1301 CNT  1    CNT  C    CA     0.000000   12.01070000        0
    1302 CNT  1    CNT  C    CA     0.000000   12.01070000        0
    1303 CNT  1    CNT  C    CA     0.000000   12.01070000        0
    1304 CNT  1    CNT  C    CA     0.000000   12.01070000        0
    1305 CNT  1    CNT  C    CA     0.000000   12.01070000        0
    1306 CNT  1    CNT  C    CA     0.000000   12.01070000        0
    1307 CNT  1    CNT  C    CA     0.000000   12.01070000        0
    1308 CNT  1    CNT  C    CA     0.000000   12.01070000        0
    1309 CNT  1    CNT  C    CA     0.000000   12.01070000        0
    1310 CNT  1    CNT  C    CA     0.000000   12.01070000        0
    1311 CNT  1    CNT  C    CA     0.000000   12.01070000        0
    1312 CNT  1    CNT  C    CA     0.000000   12.01070000        0
    1313 CNT  1    CNT  C    CA     0.000000   12.01070000        0
    1314 CNT  1    CNT  C    CA     0.000000   12.01070000        0
    1315 CNT  1    CNT  C    CA     0.000000   12.01070000        0
    1316 CNT  1    CNT  C    CA     0.000000   12.01070000        0
    1317 CNT  1    CNT  C    CA     0.000000   12.01070000        0
    1318 CNT  1    CNT  C    CA     0.000000   12.01070000        0
    1319 CNT  1    CNT  C    CA     0.000000   12.01070000        0
    1320 CNT  1    CNT  C    CA     0.000000   12.01070000        0
    1321 CNT  1    CNT  C    CA     0.000000   12.01070000        0
    1322 CNT  1    CNT  C    CA     0.000000   12.01070000        0
    1323 CNT  1    CNT  C    CA     0.000000   12.01070000        0
    1324 CNT  1    CNT  C    CA     0.000000   12.01070000        0
    1325 CNT  1    CNT  C    CA     0.000000   12.01070000        0
    1326 CNT  1    CNT  C    CA     0.000000   12.01070000        0
    1327 CNT  1    CNT  C    CA     0.000000   12.01070000        0
    1328 CNT  1    CNT  C    CA     0.000000   12.01070000        0
    1329 CNT  1    CNT  C    CA     0.000000   12.01070000        0
    1330 CNT  1    CNT  C    CA     0.000000   12.01070000        0
    1331 CNT  1    CNT  C    CA     0.000000   12.01070000        0
    1332 CNT  1    CNT  C    CA     0.000000   12.01070000        0
    1333 CNT  1    CNT  C    CA     0.000000   12.01070000        0
    1334 CNT  1    CNT  C    CA     0.000000   12.01070000        0
    1335 CNT  1    CNT  C    CA     0.000000   12.01070000        0
    1336 CNT  1    CNT  C    CA     0.000000   12.01070000        0
    1337 CNT  1    CNT  C    CA     0.000000   12.01070000        0
    1338 CNT  1    CNT  C    CA     0.000000   12.01070000        0
    1339 CNT  1    CNT  C    CA     0.000000   12.01070000        0
    1340 CNT  1    CNT  C    CA     0.000000   12.01070000        0
    1341 CNT  1    CNT  C    CA     0.000000   12.01070000        0
    1342 CNT  1    CNT  C    CA     0.000000   12.01070000        0
    1343 CNT  1    CNT  C    CA     0.000000   12.01070000        0
    1344 CNT  1    CNT  C    CA     0.000000   12.01070000        0
    1345 CNT  1    CNT  C    CA     0.000000   12.01070000        0
    1346 CNT  1    CNT  C    CA     0.000000   12.01070000        0
    1347 CNT  1    CNT  C    CA     0.000000   12.01070000        0
    1348 CNT  1    CNT  C    CA     0.000000   12.01070000        0
    1349 CNT  1    CNT  C    CA     0.000000   12.01070000        0
    1350 CNT  1    CNT  C    CA     0.000000   12.01070000        0
    1351 CNT  1    CNT  C    CA     0.000000   12.01070000        0
    1352 CNT  1    CNT  C    CA     0.000000   12.01070000        0
    1353 CNT  1    CNT  C    CA     0.000000   12.01070000        0
    1354 CNT  1    CNT  C    CA     0.000000   12.01070000        0
    1355 CNT  1    CNT  C    CA     0.000000   12.01070000        0
    1356 CNT  1    CNT  C    CA     0.000000   12.01070000        0
    1357 CNT  1    CNT  C    CA     0.000000   12.01070000        0
    1358 CNT  1    CNT  C    CA     0.000000   12.01070000        0
    1359 CNT  1    CNT  C    CA     0.000000   12.01070000        0
    1360 CNT  1    CNT  C    CA     0.000000   12.01070000        0
    1361 CNT  1    CNT  C    CA     0.000000   12.01070000        0
    1362 CNT  1    CNT  C    CA     0.000000   12.01070000        0
    1363 CNT  1    CNT  C    CA     0.000000   12.01070000        0
    1364 CNT  1    CNT  C    CA     0.000000   12.01070000        0
    1365 CNT  1    CNT  C    CA     0.000000   12.01070000        0
    1366 CNT  1    CNT  C    CA     0.000000   12.01070000        0
    1367 CNT  1    CNT  C    CA     0.000000   12.01070000        0
    1368 CNT  1    CNT  C    CA     0.000000   12.01070000        0
    1369 CNT  1    CNT  C    CA     0.000000   12.01070000        0
    1370 CNT  1    CNT  C    CA     0.000000   12.01070000        0
    1371 CNT  1    CNT  C    CA     0.000000   12.01070000        0
    1372 CNT  1    CNT  C    CA     0.000000   12.01070000        0
    1373 CNT  1    CNT  C    CA     0.000000   12.01070000        0
    1374 CNT  1    CNT  C    CA     0.000000   12.01070000        0
    1375 CNT  1    CNT  C    CA     0.000000   12.01070000        0
    1376 CNT  1    CNT  C    CA     0.000000   12.01070000        0
    1377 CNT  1    CNT  C    CA     0.000000   12.01070000        0
    1378 CNT  1    CNT  C    CA     0.000000   12.01070000        0
    1379 CNT  1    CNT  C    CA     0.000000   12.01070000        0
    1380 CNT  1    CNT  C    CA     0.000000   12.01070000        0
    1381 CNT  1    CNT  C    CA     0.000000   12.01070000        0
    1382 CNT  1    CNT  C    CA     0.000000   12.01070000        0
    1383 CNT  1    CNT  C    CA     0.000000   12.01070000        0
    1384 CNT  1    CNT  C    CA     0.000000   12.01070000        0
    1385 CNT  1    CNT  C    CA     0.000000   12.01070000        0
    1386 CNT  1    CNT  C    CA     0.000000   12.01070000        0
    1387 CNT  1    CNT  C    CA     0.000000   12.01070000        0
    1388 CNT  1    CNT  C    CA     0.000000   12.01070000        0
    1389 CNT  1    CNT  C    CA     0.000000   12.01070000        0
    1390 CNT  1    CNT  C    CA     0.000000   12.01070000        0
    1391 CNT  1    CNT  C    CA     0.000000   12.01070000        0
    1392 CNT  1    CNT  C    CA     0.000000   12.01070000        0
    1393 CNT  1    CNT  C    CA     0.000000   12.01070000        0
    1394 CNT  1    CNT  C    CA     0.000000   12.01070000        0
    1395 CNT  1    CNT  C    CA     0.000000   12.01070000        0
    1396 CNT  1    CNT  C    CA     0.000000   12.01070000        0
    1397 CNT  1    CNT  C    CA     0.000000   12.01070000        0
    1398 CNT  1    CNT  C    CA     0.000000   12.01070000        0
    1399 CNT  1    CNT  C    CA     0.000000   12.01070000        0
    1400 CNT  1    CNT  C    CA     0.000000   12.01070000        0
    1401 CNT  1    CNT  C    CA     0.000000   12.01070000        0
    1402 CNT  1    CNT  C    CA     0.000000   12.01070000        0
    1403 CNT  1    CNT  C    CA     0.000000   12.01070000        0
    1404 CNT  1    CNT  C    CA     0.000000   12.01070000        0
    1405 CNT  1    CNT  C    CA     0.000000   12.01070000        0
    1406 CNT  1    CNT  C    CA     0.000000   12.01070000        0
    1407 CNT  1    CNT  C    CA     0.000000   12.01070000        0
    1408 CNT  1    CNT  C    CA     0.000000   12.01070000        0
    1409 CNT  1    CNT  C    CA     0.000000   12.01070000        0
    1410 CNT  1    CNT  C    CA     0.000000   12.01070000        0
    1411 CNT  1    CNT  C    CA     0.000000   12.01070000        0
    1412 CNT  1    CNT  C    CA     0.000000   12.01070000        0
    1413 CNT  1    CNT  C    CA     0.000000   12.01070000        0
    1414 CNT  1    CNT  C    CA     0.000000   12.01070000        0
    1415 CNT  1    CNT  C    CA     0.000000   12.01070000        0
    1416 CNT  1    CNT  C    CA     0.000000   12.01070000        0
    1417 CNT  1    CNT  C    CA     0.000000   12.01070000        0
    1418 CNT  1    CNT  C    CA     0.000000   12.01070000        0
    1419 CNT  1    CNT  C    CA     0.000000   12.01070000        0
    1420 CNT  1    CNT  C    CA     0.000000   12.01070000        0
    1421 CNT  1    CNT  C    CA     0.000000   12.01070000        0
    1422 CNT  1    CNT  C    CA     0.000000   12.01070000        0
    1423 CNT  1    CNT  C    CA     0.000000   12.01070000        0
    1424 CNT  1    CNT  C    CA     0.000000   12.01070000        0
    1425 CNT  1    CNT  C    CA     0.000000   12.01070000        0
    1426 CNT  1    CNT  C    CA     0.000000   12.01070000        0
    1427 CNT  1    CNT  C    CA     0.000000   12.01070000        0
    1428 CNT  1    CNT  C    CA     0.000000   12.01070000        0
    1429 CNT  1    CNT  C    CA     0.000000   12.01070000        0
    1430 CNT  1    CNT  C    CA     0.000000   12.01070000        0
    1431 CNT  1    CNT  C    CA     0.000000   12.01070000        0
    1432 CNT  1    CNT  C    CA     0.000000   12.01070000        0
    1433 CNT  1    CNT  C    CA     0.000000   12.01070000        0
    1434 CNT  1    CNT  C    CA     0.000000   12.01070000        0
    1435 CNT  1    CNT  C    CA     0.000000   12.01070000        0
    1436 CNT  1    CNT  C    CA     0.000000   12.01070000        0
    1437 CNT  1    CNT  C    CA     0.000000   12.01070000        0
    1438 CNT  1    CNT  C    CA     0.000000   12.01070000        0
    1439 CNT  1    CNT  C    CA     0.000000   12.01070000        0
    1440 CNT  1    CNT  C    CA     0.000000   12.01070000        0
    1441 CNT  1    CNT  C    CA     0.000000   12.01070000        0
    1442 CNT  1    CNT  C    CA     0.000000   12.01070000        0
    1443 CNT  1    CNT  C    CA     0.000000   12.01070000        0
    1444 CNT  1    CNT  C    CA     0.000000   12.01070000        0
    1445 CNT  1    CNT  C    CA     0.000000   12.01070000        0
    1446 CNT  1    CNT  C    CA     0.000000   12.01070000        0
    1447 CNT  1    CNT  C    CA     0.000000   12.01070000        0
    1448 CNT  1    CNT  C    CA     0.000000   12.01070000        0
    1449 CNT  1    CNT  C    CA     0.000000   12.01070000        0
    1450 CNT  1    CNT  C    CA     0.000000   12.01070000        0
    1451 CNT  1    CNT  C    CA     0.000000   12.01070000        0
    1452 CNT  1    CNT  C    CA     0.000000   12.01070000        0
    1453 CNT  1    CNT  C    CA     0.000000   12.01070000        0
    1454 CNT  1    CNT  C    CA     0.000000   12.01070000        0
    1455 CNT  1    CNT  C    CA     0.000000   12.01070000        0
    1456 CNT  1    CNT  C    CA     0.000000   12.01070000        0
    1457 CNT  1    CNT  C    CA     0.000000   12.01070000        0
    1458 CNT  1    CNT  C    CA     0.000000   12.01070000        0
    1459 CNT  1    CNT  C    CA     0.000000   12.01070000        0
    1460 CNT  1    CNT  C    CA     0.000000   12.01070000        0
    1461 CNT  1    CNT  C    CA     0.000000   12.01070000        0
    1462 CNT  1    CNT  C    CA     0.000000   12.01070000        0
    1463 CNT  1    CNT  C    CA     0.000000   12.01070000        0
    1464 CNT  1    CNT  C    CA     0.000000   12.01070000        0
    1465 CNT  1    CNT  C    CA     0.000000   12.01070000        0
    1466 CNT  1    CNT  C    CA     0.000000   12.01070000        0
    1467 CNT  1    CNT  C    CA     0.000000   12.01070000        0
    1468 CNT  1    CNT  C    CA     0.000000   12.01070000        0
    1469 CNT  1    CNT  C    CA     0.000000   12.01070000        0
    1470 CNT  1    CNT  C    CA     0.000000   12.01070000        0
    1471 CNT  1    CNT  C    CA     0.000000   12.01070000        0
    1472 CNT  1    CNT  C    CA     0.000000   12.01070000        0
    1473 CNT  1    CNT  C    CA     0.000000   12.01070000        0
    1474 CNT  1    CNT  C    CA     0.000000   12.01070000        0
    1475 CNT  1    CNT  C    CA     0.000000   12.01070000        0
    1476 CNT  1    CNT  C    CA     0.000000   12.01070000        0
    1477 CNT  1    CNT  C    CA     0.000000   12.01070000        0
    1478 CNT  1    CNT  C    CA     0.000000   12.01070000        0
    1479 CNT  1    CNT  C    CA     0.000000   12.01070000        0
    1480 CNT  1    CNT  C    CA     0.000000   12.01070000        0
    1481 CNT  1    CNT  C    CA     0.000000   12.01070000        0
    1482 CNT  1    CNT  C    CA     0.000000   12.01070000        0
    1483 CNT  1    CNT  C    CA     0.000000   12.01070000        0
    1484 CNT  1    CNT  C    CA     0.000000   12.01070000        0
    1485 CNT  1    CNT  C    CA     0.000000   12.01070000        0
    1486 CNT  1    CNT  C    CA     0.000000   12.01070000        0
    1487 CNT  1    CNT  C    CA     0.000000   12.01070000        0
    1488 CNT  1    CNT  C    CA     0.000000   12.01070000        0
    1489 CNT  1    CNT  C    CA     0.000000   12.01070000        0
    1490 CNT  1    CNT  C    CA     0.000000   12.01070000        0
    1491 CNT  1    CNT  C    CA     0.000000   12.01070000        0
    1492 CNT  1    CNT  C    CA     0.000000   12.01070000        0
    1493 CNT  1    CNT  C    CA     0.000000   12.01070000        0
    1494 CNT  1    CNT  C    CA     0.000000   12.01070000        0
    1495 CNT  1    CNT  C    CA     0.000000   12.01070000        0
    1496 CNT  1    CNT  C    CA     0.000000   12.01070000        0
    1497 CNT  1    CNT  C    CA     0.000000   12.01070000        0
    1498 CNT  1    CNT  C    CA     0.000000   12.01070000        0
    1499 CNT  1    CNT  C    CA     0.000000   12.01070000        0
    1500 CNT  1    CNT  C    CA     0.000000   12.01070000        0
    1501 CNT  1    CNT  C    CA     0.000000   12.01070000        0
    1502 CNT  1    CNT  C    CA     0.000000   12.01070000        0
    1503 CNT  1    CNT  C    CA     0.000000   12.01070000        0
    1504 CNT  1    CNT  C    CA     0.000000   12.01070000        0
    1505 CNT  1    CNT  C    CA     0.000000   12.01070000        0
    1506 CNT  1    CNT  C    CA     0.000000   12.01070000        0
    1507 CNT  1    CNT  C    CA     0.000000   12.01070000        0
    1508 CNT  1    CNT  C    CA     0.000000   12.01070000        0
    1509 CNT  1    CNT  C    CA     0.000000   12.01070000        0
    1510 CNT  1    CNT  C    CA     0.000000   12.01070000        0
    1511 CNT  1    CNT  C    CA     0.000000   12.01070000        0
    1512 CNT  1    CNT  C    CA     0.000000   12.01070000        0
    1513 CNT  1    CNT  C    CA     0.000000   12.01070000        0
    1514 CNT  1    CNT  C    CA     0.000000   12.01070000        0
    1515 CNT  1    CNT  C    CA     0.000000   12.01070000        0
    1516 CNT  1    CNT  C    CA     0.000000   12.01070000        0
    1517 CNT  1    CNT  C    CA     0.000000   12.01070000        0
    1518 CNT  1    CNT  C    CA     0.000000   12.01070000        0
    1519 CNT  1    CNT  C    CA     0.000000   12.01070000        0
    1520 CNT  1    CNT  C    CA     0.000000   12.01070000        0
    1521 CNT  1    CNT  C    CA     0.000000   12.01070000        0
    1522 CNT  1    CNT  C    CA     0.000000   12.01070000        0
    1523 CNT  1    CNT  C    CA     0.000000   12.01070000        0
    1524 CNT  1    CNT  C    CA     0.000000   12.01070000        0
    1525 CNT  1    CNT  C    CA     0.000000   12.01070000        0
    1526 CNT  1    CNT  C    CA     0.000000   12.01070000        0
    1527 CNT  1    CNT  C    CA     0.000000   12.01070000        0
    1528 CNT  1    CNT  C    CA     0.000000   12.01070000        0
    1529 CNT  1    CNT  C    CA     0.000000   12.01070000        0
    1530 CNT  1    CNT  C    CA     0.000000   12.01070000        0
    1531 CNT  1    CNT  C    CA     0.000000   12.01070000        0
    1532 CNT  1    CNT  C    CA     0.000000   12.01070000        0
    1533 CNT  1    CNT  C    CA     0.000000   12.01070000        0
    1534 CNT  1    CNT  C    CA     0.000000   12.01070000        0
    1535 CNT  1    CNT  C    CA     0.000000   12.01070000        0
    1536 CNT  1    CNT  C    CA     0.000000   12.01070000        0
    1537 CNT  1    CNT  C    CA     0.000000   12.01070000        0
    1538 CNT  1    CNT  C    CA     0.000000   12.01070000        0
    1539 CNT  1    CNT  C    CA     0.000000   12.01070000        0
    1540 CNT  1    CNT  C    CA     0.000000   12.01070000        0
    1541 CNT  1    CNT  C    CA     0.000000   12.01070000        0
    1542 CNT  1    CNT  C    CA     0.000000   12.01070000        0
    1543 CNT  1    CNT  C    CA     0.000000   12.01070000        0
    1544 CNT  1    CNT  C    CA     0.000000   12.01070000        0
    1545 CNT  1    CNT  C    CA     0.000000   12.01070000        0
    1546 CNT  1    CNT  C    CA     0.000000   12.01070000        0
    1547 CNT  1    CNT  C    CA     0.000000   12.01070000        0
    1548 CNT  1    CNT  C    CA     0.000000   12.01070000        0
    1549 CNT  1    CNT  C    CA     0.000000   12.01070000        0
    1550 CNT  1    CNT  C    CA     0.000000   12.01070000        0
    1551 CNT  1    CNT  C    CA     0.000000   12.01070000        0
    1552 CNT  1    CNT  C    CA     0.000000   12.01070000        0
    1553 CNT  1    CNT  C    CA     0.000000   12.01070000        0
    1554 CNT  1    CNT  C    CA     0.000000   12.01070000        0
    1555 CNT  1    CNT  C    CA     0.000000   12.01070000        0
    1556 CNT  1    CNT  C    CA     0.000000   12.01070000        0
    1557 CNT  1    CNT  C    CA     0.000000   12.01070000        0
    1558 CNT  1    CNT  C    CA     0.000000   12.01070000        0
    1559 CNT  1    CNT  C    CA     0.000000   12.01070000        0
    1560 CNT  1    CNT  C    CA     0.000000   12.01070000        0
    1561 CNT  1    CNT  C    CA     0.000000   12.01070000        0
    1562 CNT  1    CNT  C    CA     0.000000   12.01070000        0
    1563 CNT  1    CNT  C    CA     0.000000   12.01070000        0
    1564 CNT  1    CNT  C    CA     0.000000   12.01070000        0
    1565 CNT  1    CNT  C    CA     0.000000   12.01070000        0
    1566 CNT  1    CNT  C    CA     0.000000   12.01070000        0
    1567 CNT  1    CNT  C    CA     0.000000   12.01070000        0
    1568 CNT  1    CNT  C    CA     0.000000   12.01070000        0
    1569 CNT  1    CNT  C    CA     0.000000   12.01070000        0
    1570 CNT  1    CNT  C    CA     0.000000   12.01070000        0
    1571 CNT  1    CNT  C    CA     0.000000   12.01070000        0
    1572 CNT  1    CNT  C    CA     0.000000   12.01070000        0
    1573 CNT  1    CNT  C    CA     0.000000   12.01070000        0
    1574 CNT  1    CNT  C    CA     0.000000   12.01070000        0
    1575 CNT  1    CNT  C    CA     0.000000   12.01070000        0
    1576 CNT  1    CNT  C    CA     0.000000   12.01070000        0
    1577 CNT  1    CNT  C    CA     0.000000   12.01070000        0
    1578 CNT  1    CNT  C    CA     0.000000   12.01070000        0
    1579 CNT  1    CNT  C    CA     0.000000   12.01070000        0
    1580 CNT  1    CNT  C    CA     0.000000   12.01070000        0
    1581 CNT  1    CNT  C    CA     0.000000   12.01070000        0
    1582 CNT  1    CNT  C    CA     0.000000   12.01070000        0
    1583 CNT  1    CNT  C    CA     0.000000   12.01070000        0
    1584 CNT  1    CNT  C    CA     0.000000   12.01070000        0
    1585 CNT  1    CNT  C    CA     0.000000   12.01070000        0
    1586 CNT  1    CNT  C    CA     0.000000   12.01070000        0
    1587 CNT  1    CNT  C    CA     0.000000   12.01070000        0
    1588 CNT  1    CNT  C    CA     0.000000   12.01070000        0
    1589 CNT  1    CNT  C    CA     0.000000   12.01070000        0
    1590 CNT  1    CNT  C    CA     0.000000   12.01070000        0
    1591 CNT  1    CNT  C    CA     0.000000   12.01070000        0
    1592 CNT  1    CNT  C    CA     0.000000   12.01070000        0
    1593 CNT  1    CNT  C    CA     0.000000   12.01070000        0
    1594 CNT  1    CNT  C    CA     0.000000   12.01070000        0
    1595 CNT  1    CNT  C    CA     0.000000   12.01070000        0
    1596 CNT  1    CNT  C    CA     0.000000   12.01070000        0
    1597 CNT  1    CNT  C    CA     0.000000   12.01070000        0
    1598 CNT  1    CNT  C    CA     0.000000   12.01070000        0
    1599 CNT  1    CNT  C    CA     0.000000   12.01070000        0
    1600 CNT  1    CNT  C    CA     0.000000   12.01070000        0
    1601 CNT  1    CNT  C    CA     0.000000   12.01070000        0
    1602 CNT  1    CNT  C    CA     0.000000   12.01070000        0
    1603 CNT  1    CNT  C    CA     0.000000   12.01070000        0
    1604 CNT  1    CNT  C    CA     0.000000   12.01070000        0
    1605 CNT  1    CNT  C    CA     0.000000   12.01070000        0
    1606 CNT  1    CNT  C    CA     0.000000   12.01070000        0
    1607 CNT  1    CNT  C    CA     0.000000   12.01070000        0
    1608 CNT  1    CNT  C    CA     0.000000   12.01070000        0
    1609 CNT  1    CNT  C    CA     0.000000   12.01070000        0
    1610 CNT  1    CNT  C    CA     0.000000   12.01070000        0
    1611 CNT  1    CNT  C    CA     0.000000   12.01070000        0
    1612 CNT  1    CNT  C    CA     0.000000   12.01070000        0
    1613 CNT  1    CNT  C    CA     0.000000   12.01070000        0
    1614 CNT  1    CNT  C    CA     0.000000   12.01070000        0
    1615 CNT  1    CNT  C    CA     0.000000   12.01070000        0
    1616 CNT  1    CNT  C    CA     0.000000   12.01070000        0
    1617 CNT  1    CNT  C    CA     0.000000   12.01070000        0
    1618 CNT  1    CNT  C    CA     0.000000   12.01070000        0
    1619 CNT  1    CNT  C    CA     0.000000   12.01070000        0
    1620 CNT  1    CNT  C    CA     0.000000   12.01070000        0
    1621 CNT  1    CNT  C    CA     0.000000   12.01070000        0
    1622 CNT  1    CNT  C    CA     0.000000   12.01070000        0
    1623 CNT  1    CNT  C    CA     0.000000   12.01070000        0
    1624 CNT  1    CNT  C    CA     0.000000   12.01070000        0
    1625 CNT  1    CNT  C    CA     0.000000   12.01070000        0
    1626 CNT  1    CNT  C    CA     0.000000   12.01070000        0
    1627 CNT  1    CNT  C    CA     0.000000   12.01070000        0
    1628 CNT  1    CNT  C    CA     0.000000   12.01070000        0
    1629 CNT  1    CNT  C    CA     0.000000   12.01070000        0
    1630 CNT  1    CNT  C    CA     0.000000   12.01070000        0
    1631 CNT  1    CNT  C    CA     0.000000   12.01070000        0
    1632 CNT  1    CNT  C    CA     0.000000   12.01070000        0
    1633 CNT  1    CNT  C    CA     0.000000   12.01070000        0
    1634 CNT  1    CNT  C    CA     0.000000   12.01070000        0
    1635 CNT  1    CNT  C    CA     0.000000   12.01070000        0
    1636 CNT  1    CNT  C    CA     0.000000   12.01070000        0
    1637 CNT  1    CNT  C    CA     0.000000   12.01070000        0
    1638 CNT  1    CNT  C    CA     0.000000   12.01070000        0
    1639 CNT  1    CNT  C    CA     0.000000   12.01070000        0
    1640 CNT  1    CNT  C    CA     0.000000   12.01070000        0
    1641 CNT  1    CNT  C    CA     0.000000   12.01070000        0
    1642 CNT  1    CNT  C    CA     0.000000   12.01070000        0
    1643 CNT  1    CNT  C    CA     0.000000   12.01070000        0
    1644 CNT  1    CNT  C    CA     0.000000   12.01070000        0
    1645 CNT  1    CNT  C    CA     0.000000   12.01070000        0
    1646 CNT  1    CNT  C    CA     0.000000   12.01070000        0
    1647 CNT  1    CNT  C    CA     0.000000   12.01070000        0
    1648 CNT  1    CNT  C    CA     0.000000   12.01070000        0
    1649 CNT  1    CNT  C    CA     0.000000   12.01070000        0
    1650 CNT  1    CNT  C    CA     0.000000   12.01070000        0
    1651 CNT  1    CNT  C    CA     0.000000   12.01070000        0
    1652 CNT  1    CNT  C    CA     0.000000   12.01070000        0
    1653 CNT  1    CNT  C    CA     0.000000   12.01070000        0
    1654 CNT  1    CNT  C    CA     0.000000   12.01070000        0
    1655 CNT  1    CNT  C    CA     0.000000   12.01070000        0
    1656 CNT  1    CNT  C    CA     0.000000   12.01070000        0
    1657 CNT  1    CNT  C    CA     0.000000   12.01070000        0
    1658 CNT  1    CNT  C    CA     0.000000   12.01070000        0
    1659 CNT  1    CNT  C    CA     0.000000   12.01070000        0
    1660 CNT  1    CNT  C    CA     0.000000   12.01070000        0
    1661 CNT  1    CNT  C    CA     0.000000   12.01070000        0
    1662 CNT  1    CNT  C    CA     0.000000   12.01070000        0
    1663 CNT  1    CNT  C    CA     0.000000   12.01070000        0
    1664 CNT  1    CNT  C    CA     0.000000   12.01070000        0
    1665 CNT  1    CNT  C    CA     0.000000   12.01070000        0
    1666 CNT  1    CNT  C    CA     0.000000   12.01070000        0
    1667 CNT  1    CNT  C    CA     0.000000   12.01070000        0
    1668 CNT  1    CNT  C    CA     0.000000   12.01070000        0
    1669 CNT  1    CNT  C    CA     0.000000   12.01070000        0
    1670 CNT  1    CNT  C    CA     0.000000   12.01070000        0
    1671 CNT  1    CNT  C    CA     0.000000   12.01070000        0
    1672 CNT  1    CNT  C    CA     0.000000   12.01070000        0
    1673 CNT  1    CNT  C    CA     0.000000   12.01070000        0
    1674 CNT  1    CNT  C    CA     0.000000   12.01070000        0
    1675 CNT  1    CNT  C    CA     0.000000   12.01070000        0
    1676 CNT  1    CNT  C    CA     0.000000   12.01070000        0
    1677 CNT  1    CNT  C    CA     0.000000   12.01070000        0
    1678 CNT  1    CNT  C    CA     0.000000   12.01070000        0
    1679 CNT  1    CNT  C    CA     0.000000   12.01070000        0
    1680 CNT  1    CNT  C    CA     0.000000   12.01070000        0
    1681 CNT  1    CNT  C    CA     0.000000   12.01070000        0
    1682 CNT  1    CNT  C    CA     0.000000   12.01070000        0
    1683 CNT  1    CNT  C    CA     0.000000   12.01070000        0
    1684 CNT  1    CNT  C    CA     0.000000   12.01070000        0
    1685 CNT  1    CNT  C    CA     0.000000   12.01070000        0
    1686 CNT  1    CNT  C    CA     0.000000   12.01070000        0
    1687 CNT  1    CNT  C    CA     0.000000   12.01070000        0
    1688 CNT  1    CNT  C    CA     0.000000   12.01070000        0
    1689 CNT  1    CNT  C    CA     0.000000   12.01070000        0
    1690 CNT  1    CNT  C    CA     0.000000   12.01070000        0
    1691 CNT  1    CNT  C    CA     0.000000   12.01070000        0
    1692 CNT  1    CNT  C    CA     0.000000   12.01070000        0
    1693 CNT  1    CNT  C    CA     0.000000   12.01070000        0
    1694 CNT  1    CNT  C    CA     0.000000   12.01070000        0
    1695 CNT  1    CNT  C    CA     0.000000   12.01070000        0
    1696 CNT  1    CNT  C    CA     0.000000   12.01070000        0
    1697 CNT  1    CNT  C    CA     0.000000   12.01070000        0
    1698 CNT  1    CNT  C    CA     0.000000   12.01070000        0
    1699 CNT  1    CNT  C    CA     0.000000   12.01070000        0
    1700 CNT  1    CNT  C    CA     0.000000   12.01070000        0
    1701 CNT  1    CNT  C    CA     0.000000   12.01070000        0
    1702 CNT  1    CNT  C    CA     0.000000   12.01070000        0
    1703 CNT  1    CNT  C    CA     0.000000   12.01070000        0
    1704 CNT  1    CNT  C    CA     0.000000   12.01070000        0
    1705 CNT  1    CNT  C    CA     0.000000   12.01070000        0
    1706 CNT  1    CNT  C    CA     0.000000   12.01070000        0
    1707 CNT  1    CNT  C    CA     0.000000   12.01070000        0
    1708 CNT  1    CNT  C    CA     0.000000   12.01070000        0
    1709 CNT  1    CNT  C    CA     0.000000   12.01070000        0
    1710 CNT  1    CNT  C    CA     0.000000   12.01070000        0
    1711 CNT  1    CNT  C    CA     0.000000   12.01070000        0
    1712 CNT  1    CNT  C    CA     0.000000   12.01070000        0
    1713 CNT  1    CNT  C    CA     0.000000   12.01070000        0
    1714 CNT  1    CNT  C    CA     0.000000   12.01070000        0
    1715 CNT  1    CNT  O    OX     0.000000   15.99940000        0
    1716 CNT  1    CNT  C    CA     0.000000   12.01070000        0
    1717 CNT  1    CNT  C    CA     0.000000   12.01070000        0
    1718 CNT  1    CNT  C    CA     0.000000   12.01070000        0
    1719 CNT  1    CNT  C    CA     0.000000   12.01070000        0
    1720 CNT  1    CNT  C    CA     0.000000   12.01070000        0
    1721 CNT  1    CNT  C    CA     0.000000   12.01070000        0
    1722 CNT  1    CNT  C    CA     0.000000   12.01070000        0
    1723 CNT  1    CNT  C    CA     0.000000   12.01070000        0
    1724 CNT  1    CNT  C    CA     0.000000   12.01070000        0
    1725 CNT  1    CNT  C    CA     0.000000   12.01070000        0
    1726 CNT  1    CNT  C    CA     0.000000   12.01070000        0
    1727 CNT  1    CNT  C    CA     0.000000   12.01070000        0
    1728 CNT  1    CNT  C    CA     0.000000   12.01070000        0
    1729 CNT  1    CNT  C    CA     0.000000   12.01070000        0
    1730 CNT  1    CNT  C    CA     0.000000   12.01070000        0
    1731 CNT  1    CNT  C    CA     0.000000   12.01070000        0
    1732 CNT  1    CNT  C    CA     0.000000   12.01070000        0
    1733 CNT  1    CNT  C    CA     0.000000   12.01070000        0
    1734 CNT  1    CNT  C    CA     0.000000   12.01070000        0
    1735 CNT  1    CNT  C    CA     0.000000   12.01070000        0
    1736 CNT  1    CNT  C    CA     0.000000   12.01070000        0
    1737 CNT  1    CNT  C    CA     0.000000   12.01070000        0
    1738 CNT  1    CNT  C    CA     0.000000   12.01070000        0
    1739 CNT  1    CNT  C    CA     0.000000   12.01070000        0
    1740 CNT  1    CNT  C    CA     0.000000   12.01070000        0
    1741 CNT  1    CNT  C    CA     0.000000   12.01070000        0
    1742 CNT  1    CNT  C    CA     0.000000   12.01070000        0
    1743 CNT  1    CNT  C    CA     0.000000   12.01070000        0
    1744 CNT  1    CNT  C    CA     0.000000   12.01070000        0
    1745 CNT  1    CNT  C    CA     0.000000   12.01070000        0
    1746 CNT  1    CNT  C    CA     0.000000   12.01070000        0
    1747 CNT  1    CNT  C    CA     0.000000   12.01070000        0
    1748 CNT  1    CNT  C    CA     0.000000   12.01070000        0
    1749 CNT  1    CNT  C    CA     0.000000   12.01070000        0
    1750 CNT  1    CNT  C    CA     0.000000   12.01070000        0
    1751 CNT  1    CNT  C    CA     0.000000   12.01070000        0
    1752 CNT  1    CNT  C    CA     0.000000   12.01070000        0
    1753 CNT  1    CNT  C    CA     0.000000   12.01070000        0
    1754 CNT  1    CNT  C    CA     0.000000   12.01070000        0
    1755 CNT  1    CNT  C    CA     0.000000   12.01070000        0
    1756 CNT  1    CNT  C    CA     0.000000   12.01070000        0
    1757 CNT  1    CNT  C    CA     0.000000   12.01070000        0
    1758 CNT  1    CNT  C    CA     0.000000   12.01070000        0
    1759 CNT  1    CNT  C    CA     0.000000   12.01070000        0
    1760 CNT  1    CNT  C    CA     0.000000   12.01070000        0
    1761 CNT  1    CNT  C    CA     0.000000   12.01070000        0
    1762 CNT  1    CNT  C    CA     0.000000   12.01070000        0
    1763 CNT  1    CNT  C    CA     0.000000   12.01070000        0
    1764 CNT  1    CNT  C    CA     0.000000   12.01070000        0
    1765 CNT  1    CNT  C    CA     0.000000   12.01070000        0
    1766 CNT  1    CNT  C    CA     0.000000   12.01070000        0
    1767 CNT  1    CNT  C    CA     0.000000   12.01070000        0
    1768 CNT  1    CNT  C    CA     0.000000   12.01070000        0
    1769 CNT  1    CNT  C    CA     0.000000   12.01070000        0
    1770 CNT  1    CNT  C    CA     0.000000   12.01070000        0
    1771 CNT  1    CNT  C    CA     0.000000   12.01070000        0
    1772 CNT  1    CNT  O    OX     0.000000   15.99940000        0
    1773 CNT  1    CNT  C    CA     0.000000   12.01070000        0
    1774 CNT  1    CNT  C    CA     0.000000   12.01070000        0
    1775 CNT  1    CNT  O    OX     0.000000   15.99940000        0
    1776 CNT  1    CNT  C    CA     0.000000   12.01070000        0
    1777 CNT  1    CNT  C    CA     0.000000   12.01070000        0
    1778 CNT  1    CNT  C    CA     0.000000   12.01070000        0
    1779 CNT  1    CNT  C    CA     0.000000   12.01070000        0
    1780 CNT  1    CNT  C    CA     0.000000   12.01070000        0
    1781 CNT  1    CNT  C    CA     0.000000   12.01070000        0
    1782 CNT  1    CNT  C    CA     0.000000   12.01070000        0
    1783 CNT  1    CNT  C    CA     0.000000   12.01070000        0
    1784 CNT  1    CNT  C    CA     0.000000   12.01070000        0
    1785 CNT  1    CNT  C    CA     0.000000   12.01070000        0
    1786 CNT  1    CNT  C    CA     0.000000   12.01070000        0
    1787 CNT  1    CNT  C    CA     0.000000   12.01070000        0
    1788 CNT  1    CNT  C    CA     0.000000   12.01070000        0
    1789 CNT  1    CNT  C    CA     0.000000   12.01070000        0
    1790 CNT  1    CNT  C    CA     0.000000   12.01070000        0
    1791 CNT  1    CNT  C    CA     0.000000   12.01070000        0
    1792 CNT  1    CNT  C    CA     0.000000   12.01070000        0
    1793 CNT  1    CNT  C    CA     0.000000   12.01070000        0
    1794 CNT  1    CNT  C    CA     0.000000   12.01070000        0
    1795 CNT  1    CNT  C    CA     0.000000   12.01070000        0
    1796 CNT  1    CNT  C    CA     0.000000   12.01070000        0
    1797 CNT  1    CNT  C    CA     0.000000   12.01070000        0
    1798 CNT  1    CNT  C    CA     0.000000   12.01070000        0
    1799 CNT  1    CNT  C    CA     0.000000   12.01070000        0
    1800 CNT  1    CNT  C    CA     0.000000   12.01070000        0
    1801 CNT  1    CNT  C    CA     0.000000   12.01070000        0
    1802 CNT  1    CNT  C    CA     0.000000   12.01070000        0
    1803 CNT  1    CNT  C    CA     0.000000   12.01070000        0
    1804 CNT  1    CNT  O    OX     0.000000   15.99940000        0
    1805 CNT  1    CNT  O    OX     0.000000   15.99940000        0
    1806 CNT  1    CNT  C    CA     0.000000   12.01070000        0
    1807 CNT  1    CNT  C    CA     0.000000   12.01070000        0
    1808 CNT  1    CNT  C    CA     0.000000   12.01070000        0
    1809 CNT  1    CNT  C    CA     0.000000   12.01070000        0
    1810 CNT  1    CNT  C    CA     0.000000   12.01070000        0
    1811 CNT  1    CNT  C    CA     0.000000   12.01070000        0
    1812 CNT  1    CNT  C    CA     0.000000   12.01070000        0
    1813 CNT  1    CNT  C    CA     0.000000   12.01070000        0
    1814 CNT  1    CNT  C    CA     0.000000   12.01070000        0
    1815 CNT  1    CNT  C    CA     0.000000   12.01070000        0
    1816 CNT  1    CNT  C    CA     0.000000   12.01070000        0
    1817 CNT  1    CNT  C    CA     0.000000   12.01070000        0
    1818 CNT  1    CNT  C    CA     0.000000   12.01070000        0
    1819 CNT  1    CNT  C    CA     0.000000   12.01070000        0
    1820 CNT  1    CNT  C    CA     0.000000   12.01070000        0
    1821 CNT  1    CNT  C    CA     0.000000   12.01070000        0
    1822 CNT  1    CNT  C    CA     0.000000   12.01070000        0
    1823 CNT  1    CNT  C    CA     0.000000   12.01070000        0
    1824 CNT  1    CNT  C    CA     0.000000   12.01070000        0
    1825 CNT  1    CNT  C    CA     0.000000   12.01070000        0
    1826 CNT  1    CNT  C    CA     0.000000   12.01070000        0
    1827 CNT  1    CNT  C    CA     0.000000   12.01070000        0
    1828 CNT  1    CNT  C    CA     0.000000   12.01070000        0
    1829 CNT  1    CNT  C    CA     0.000000   12.01070000        0
    1830 CNT  1    CNT  C    CA     0.000000   12.01070000        0
    1831 CNT  1    CNT  O    OX     0.000000   15.99940000        0
    1832 CNT  1    CNT  O    OX     0.000000   15.99940000        0
    1833 CNT  1    CNT  C    CA     0.000000   12.01070000        0
    1834 CNT  1    CNT  C    CA     0.000000   12.01070000        0
    1835 CNT  1    CNT  C    CA     0.000000   12.01070000        0
    1836 CNT  1    CNT  C    CA     0.000000   12.01070000        0
    1837 CNT  1    CNT  C    CA     0.000000   12.01070000        0
    1838 CNT  1    CNT  C    CA     0.000000   12.01070000        0
    1839 CNT  1    CNT  C    CA     0.000000   12.01070000        0
    1840 CNT  1    CNT  C    CA     0.000000   12.01070000        0
    1841 CNT  1    CNT  C    CA     0.000000   12.01070000        0
    1842 CNT  1    CNT  C    CA     0.000000   12.01070000        0
    1843 CNT  1    CNT  C    CA     0.000000   12.01070000        0
    1844 CNT  1    CNT  C    CA     0.000000   12.01070000        0
    1845 CNT  1    CNT  C    CA     0.000000   12.01070000        0
    1846 CNT  1    CNT  C    CA     0.000000   12.01070000        0
    1847 CNT  1    CNT  C    CA     0.000000   12.01070000        0
    1848 CNT  1    CNT  C    CA     0.000000   12.01070000        0
    1849 CNT  1    CNT  C    CA     0.000000   12.01070000        0
    1850 CNT  1    CNT  C    CA     0.000000   12.01070000        0
    1851 CNT  1    CNT  C    CA     0.000000   12.01070000        0
    1852 CNT  1    CNT  C    CA     0.000000   12.01070000        0
    1853 CNT  1    CNT  C    CA     0.000000   12.01070000        0
    1854 CNT  1    CNT  C    CA     0.000000   12.01070000        0
    1855 CNT  1    CNT  C    CA     0.000000   12.01070000        0
    1856 CNT  1    CNT  C    CA     0.000000   12.01070000        0
    1857 CNT  1    CNT  C    CA     0.000000   12.01070000        0
    1858 CNT  1    CNT  O    OX     0.000000   15.99940000        0
    1859 CNT  1    CNT  O    OX     0.000000   15.99940000        0
    1860 CNT  1    CNT  C    CA     0.000000   12.01070000        0
    1861 CNT  1    CNT  C    CA     0.000000   12.01070000        0
    1862 CNT  1    CNT  C    CA     0.000000   12.01070000        0
    1863 CNT  1    CNT  C    CA     0.000000   12.01070000        0
    1864 CNT  1    CNT  C    CA     0.000000   12.01070000        0
    1865 CNT  1    CNT  C    CA     0.000000   12.01070000        0
    1866 CNT  1    CNT  C    CA     0.000000   12.01070000        0
    1867 CNT  1    CNT  C    CA     0.000000   12.01070000        0
    1868 CNT  1    CNT  C    CA     0.000000   12.01070000        0
    1869 CNT  1    CNT  C    CA     0.000000   12.01070000        0
    1870 CNT  1    CNT  C    CA     0.000000   12.01070000        0
    1871 CNT  1    CNT  C    CA     0.000000   12.01070000        0
    1872 CNT  1    CNT  C    CA     0.000000   12.01070000        0
    1873 CNT  1    CNT  C    CA     0.000000   12.01070000        0
    1874 CNT  1    CNT  C    CA     0.000000   12.01070000        0
    1875 CNT  1    CNT  C    CA     0.000000   12.01070000        0
    1876 CNT  1    CNT  C    CA     0.000000   12.01070000        0
    1877 CNT  1    CNT  C    CA     0.000000   12.01070000        0
    1878 CNT  1    CNT  C    CA     0.000000   12.01070000        0
    1879 CNT  1    CNT  C    CA     0.000000   12.01070000        0
    1880 CNT  1    CNT  C    CA     0.000000   12.01070000        0
    1881 CNT  1    CNT  C    CA     0.000000   12.01070000        0
    1882 CNT  1    CNT  C    CA     0.000000   12.01070000        0
    1883 CNT  1    CNT  C    CA     0.000000   12.01070000        0
    1884 CNT  1    CNT  C    CA     0.000000   12.01070000        0
    1885 CNT  1    CNT  C    CA     0.000000   12.01070000        0
    1886 CNT  1    CNT  O    OX     0.000000   15.99940000        0
    1887 CNT  1    CNT  O    OX     0.000000   15.99940000        0
    1888 CNT  1    CNT  C    CA     0.000000   12.01070000        0
    1889 CNT  1    CNT  C    CA     0.000000   12.01070000        0
    1890 CNT  1    CNT  C    CA     0.000000   12.01070000        0
    1891 CNT  1    CNT  C    CA     0.000000   12.01070000        0
    1892 CNT  1    CNT  C    CA     0.000000   12.01070000        0
    1893 CNT  1    CNT  C    CA     0.000000   12.01070000        0
    1894 CNT  1    CNT  C    CA     0.000000   12.01070000        0
    1895 CNT  1    CNT  C    CA     0.000000   12.01070000        0
    1896 CNT  1    CNT  C    CA     0.000000   12.01070000        0
    1897 CNT  1    CNT  C    CA     0.000000   12.01070000        0
    1898 CNT  1    CNT  C    CA     0.000000   12.01070000        0
    1899 CNT  1    CNT  C    CA     0.000000   12.01070000        0
    1900 CNT  1    CNT  C    CA     0.000000   12.01070000        0
    1901 CNT  1    CNT  C    CA     0.000000   12.01070000        0
    1902 CNT  1    CNT  C    CA     0.000000   12.01070000        0
    1903 CNT  1    CNT  C    CA     0.000000   12.01070000        0
    1904 CNT  1    CNT  C    CA     0.000000   12.01070000        0
    1905 CNT  1    CNT  C    CA     0.000000   12.01070000        0
    1906 CNT  1    CNT  C    CA     0.000000   12.01070000        0
    1907 CNT  1    CNT  C    CA     0.000000   12.01070000        0
    1908 CNT  1    CNT  C    CA     0.000000   12.01070000        0
    1909 CNT  1    CNT  C    CA     0.000000   12.01070000        0
    1910 CNT  1    CNT  C    CA     0.000000   12.01070000        0
    1911 CNT  1    CNT  C    CA     0.000000   12.01070000        0
    1912 CNT  1    CNT  C    CA     0.000000   12.01070000        0
    1913 CNT  1    CNT  O    OX     0.000000   15.99940000        0
    1914 CNT  1    CNT  O    OX     0.000000   15.99940000        0
    1915 CNT  1    CNT  C    CA     0.000000   12.01070000        0
    1916 CNT  1    CNT  C    CA     0.000000   12.01070000        0
    1917 CNT  1    CNT  C    CA     0.000000   12.01070000        0
    1918 CNT  1    CNT  C    CA     0.000000   12.01070000        0
    1919 CNT  1    CNT  C    CA     0.000000   12.01070000        0
    1920 CNT  1    CNT  C    CA     0.000000   12.01070000        0
    1921 CNT  1    CNT  C    CA     0.000000   12.01070000        0
    1922 CNT  1    CNT  C    CA     0.000000   12.01070000        0
    1923 CNT  1    CNT  C    CA     0.000000   12.01070000        0
    1924 CNT  1    CNT  C    CA     0.000000   12.01070000        0
    1925 CNT  1    CNT  C    CA     0.000000   12.01070000        0
    1926 CNT  1    CNT  C    CA     0.000000   12.01070000        0
    1927 CNT  1    CNT  C    CA     0.000000   12.01070000        0
    1928 CNT  1    CNT  C    CA     0.000000   12.01070000        0
    1929 CNT  1    CNT  C    CA     0.000000   12.01070000        0
    1930 CNT  1    CNT  C    CA     0.000000   12.01070000        0
    1931 CNT  1    CNT  C    CA     0.000000   12.01070000        0
    1932 CNT  1    CNT  C    CA     0.000000   12.01070000        0
    1933 CNT  1    CNT  C    CA     0.000000   12.01070000        0
    1934 CNT  1    CNT  C    CA     0.000000   12.01070000        0
    1935 CNT  1    CNT  C    CA     0.000000   12.01070000        0
    1936 CNT  1    CNT  C    CA     0.000000   12.01070000        0
    1937 CNT  1    CNT  C    CA     0.000000   12.01070000        0
    1938 CNT  1    CNT  C    CA     0.000000   12.01070000        0
    1939 CNT  1    CNT  C    CA     0.000000   12.01070000        0
    1940 CNT  1    CNT  O    OX     0.000000   15.99940000        0
    1941 CNT  1    CNT  O    OX     0.000000   15.99940000        0
    1942 CNT  1    CNT  C    CA     0.000000   12.01070000        0
    1943 CNT  1    CNT  C    CA     0.000000   12.01070000        0
    1944 CNT  1    CNT  C    CA     0.000000   12.01070000        0
    1945 CNT  1    CNT  C    CA     0.000000   12.01070000        0
    1946 CNT  1    CNT  C    CA     0.000000   12.01070000        0
    1947 CNT  1    CNT  C    CA     0.000000   12.01070000        0
    1948 CNT  1    CNT  C    CA     0.000000   12.01070000        0
    1949 CNT  1    CNT  C    CA     0.000000   12.01070000        0
    1950 CNT  1    CNT  C    CA     0.000000   12.01070000        0
    1951 CNT  1    CNT  C    CA     0.000000   12.01070000        0
    1952 CNT  1    CNT  C    CA     0.000000   12.01070000        0
    1953 CNT  1    CNT  C    CA     0.000000   12.01070000        0
    1954 CNT  1    CNT  C    CA     0.000000   12.01070000        0
    1955 CNT  1    CNT  C    CA     0.000000   12.01070000        0
    1956 CNT  1    CNT  C    CA     0.000000   12.01070000        0
    1957 CNT  1    CNT  C    CA     0.000000   12.01070000        0
    1958 CNT  1    CNT  C    CA     0.000000   12.01070000        0
    1959 CNT  1    CNT  C    CA     0.000000   12.01070000        0
    1960 CNT  1    CNT  C    CA     0.000000   12.01070000        0
    1961 CNT  1    CNT  C    CA     0.000000   12.01070000        0
    1962 CNT  1    CNT  C    CA     0.000000   12.01070000        0
    1963 CNT  1    CNT  C    CA     0.000000   12.01070000        0
    1964 CNT  1    CNT  C    CA     0.000000   12.01070000        0
    1965 CNT  1    CNT  C    CA     0.000000   12.01070000        0
    1966 CNT  1    CNT  C    CA     0.000000   12.01070000        0
    1967 CNT  1    CNT  C    CA     0.000000   12.01070000        0
    1968 CNT  1    CNT  C    CA     0.000000   12.01070000        0
    1969 CNT  1    CNT  C    CA     0.000000   12.01070000        0
    1970 CNT  1    CNT  O    OX     0.000000   15.99940000        0
    1971 CNT  1    CNT  C    CA     0.000000   12.01070000        0
    1972 CNT  1    CNT  C    CA     0.000000   12.01070000        0
    1973 CNT  1    CNT  C    CA     0.000000   12.01070000        0
    1974 CNT  1    CNT  C    CA     0.000000   12.01070000        0
    1975 CNT  1    CNT  C    CA     0.000000   12.01070000        0
    1976 CNT  1    CNT  C    CA     0.000000   12.01070000        0
    1977 CNT  1    CNT  C    CA     0.000000   12.01070000        0
    1978 CNT  1    CNT  C    CA     0.000000   12.01070000        0
    1979 CNT  1    CNT  C    CA     0.000000   12.01070000        0
    1980 CNT  1    CNT  C    CA     0.000000   12.01070000        0
    1981 CNT  1    CNT  C    CA     0.000000   12.01070000        0
    1982 CNT  1    CNT  C    CA     0.000000   12.01070000        0
    1983 CNT  1    CNT  C    CA     0.000000   12.01070000        0
    1984 CNT  1    CNT  C    CA     0.000000   12.01070000        0
    1985 CNT  1    CNT  C    CA     0.000000   12.01070000        0
    1986 CNT  1    CNT  C    CA     0.000000   12.01070000        0
    1987 CNT  1    CNT  C    CA     0.000000   12.01070000        0
    1988 CNT  1    CNT  C    CA     0.000000   12.01070000        0
    1989 CNT  1    CNT  C    CA     0.000000   12.01070000        0
    1990 CNT  1    CNT  C    CA     0.000000   12.01070000        0
    1991 CNT  1    CNT  C    CA     0.000000   12.01070000        0
    1992 CNT  1    CNT  C    CA     0.000000   12.01070000        0
    1993 CNT  1    CNT  C    CA     0.000000   12.01070000        0
    1994 CNT  1    CNT  C    CA     0.000000   12.01070000        0
    1995 CNT  1    CNT  C    CA     0.000000   12.01070000        0
    1996 CNT  1    CNT  C    CA     0.000000   12.01070000        0
    1997 CNT  1    CNT  C    CA     0.000000   12.01070000        0
    1998 CNT  1    CNT  C    CA     0.000000   12.01070000        0
    1999 CNT  1    CNT  C    CA     0.000000   12.01070000        0
    2000 CNT  1    CNT  O    OX     0.000000   15.99940000        0
    2001 CNT  1    CNT  C    CA     0.000000   12.01070000        0
    2002 CNT  1    CNT  C    CA     0.000000   12.01070000        0
    2003 CNT  1    CNT  O    OX     0.000000   15.99940000        0
    2004 CNT  1    CNT  C    CA     0.000000   12.01070000        0
    2005 CNT  1    CNT  C    CA     0.000000   12.01070000        0
    2006 CNT  1    CNT  C    CA     0.000000   12.01070000        0
    2007 CNT  1    CNT  C    CA     0.000000   12.01070000        0
    2008 CNT  1    CNT  C    CA     0.000000   12.01070000        0
    2009 CNT  1    CNT  C    CA     0.000000   12.01070000        0
    2010 CNT  1    CNT  C    CA     0.000000   12.01070000        0
    2011 CNT  1    CNT  C    CA     0.000000   12.01070000        0
    2012 CNT  1    CNT  C    CA     0.000000   12.01070000        0
    2013 CNT  1    CNT  C    CA     0.000000   12.01070000        0
    2014 CNT  1    CNT  C    CA     0.000000   12.01070000        0
    2015 CNT  1    CNT  C    CA     0.000000   12.01070000        0
    2016 CNT  1    CNT  C    CA     0.000000   12.01070000        0
    2017 CNT  1    CNT  C    CA     0.000000   12.01070000        0
    2018 CNT  1    CNT  C    CA     0.000000   12.01070000        0
    2019 CNT  1    CNT  C    CA     0.000000   12.01070000        0
    2020 CNT  1    CNT  C    CA     0.000000   12.01070000        0
    2021 CNT  1    CNT  C    CA     0.000000   12.01070000        0
    2022 CNT  1    CNT  C    CA     0.000000   12.01070000        0
    2023 CNT  1    CNT  C    CA     0.000000   12.01070000        0
    2024 CNT  1    CNT  C    CA     0.000000   12.01070000        0
    2025 CNT  1    CNT  C    CA     0.000000   12.01070000        0
    2026 CNT  1    CNT  C    CA     0.000000   12.01070000        0
    2027 CNT  1    CNT  C    CA     0.000000   12.01070000        0
    2028 CNT  1    CNT  C    CA     0.000000   12.01070000        0
    2029 CNT  1    CNT  C    CA     0.000000   12.01070000        0
    2030 CNT  1    CNT  C    CA     0.000000   12.01070000        0
    2031 CNT  1    CNT  C    CA     0.000000   12.01070000        0
    2032 CNT  1    CNT  C    CA     0.000000   12.01070000        0
    2033 CNT  1    CNT  C    CA     0.000000   12.01070000        0
    2034 CNT  1    CNT  C    CA     0.000000   12.01070000        0
    2035 CNT  1    CNT  C    CA     0.000000   12.01070000        0
    2036 CNT  1    CNT  C    CA     0.000000   12.01070000        0
    2037 CNT  1    CNT  C    CA     0.000000   12.01070000        0
    2038 CNT  1    CNT  C    CA     0.000000   12.01070000        0
    2039 CNT  1    CNT  C    CA     0.000000   12.01070000        0
    2040 CNT  1    CNT  C    CA     0.000000   12.01070000        0
    2041 CNT  1    CNT  C    CA     0.000000   12.01070000        0
    2042 CNT  1    CNT  C    CA     0.000000   12.01070000        0
    2043 CNT  1    CNT  C    CA     0.000000   12.01070000        0
    2044 CNT  1    CNT  C    CA     0.000000   12.01070000        0
    2045 CNT  1    CNT  C    CA     0.000000   12.01070000        0
    2046 CNT  1    CNT  C    CA     0.000000   12.01070000        0
    2047 CNT  1    CNT  C    CA     0.000000   12.01070000        0
    2048 CNT  1    CNT  C    CA     0.000000   12.01070000        0
    2049 CNT  1    CNT  C    CA     0.000000   12.01070000        0
    2050 CNT  1    CNT  C    CA     0.000000   12.01070000        0
    2051 CNT  1    CNT  C    CA     0.000000   12.01070000        0
    2052 CNT  1    CNT  C    CA     0.000000   12.01070000        0
    2053 CNT  1    CNT  C    CA     0.000000   12.01070000        0
    2054 CNT  1    CNT  C    CA     0.000000   12.01070000        0
    2055 CNT  1    CNT  C    CA     0.000000   12.01070000        0
    2056 CNT  1    CNT  C    CA     0.000000   12.01070000        0
    2057 CNT  1    CNT  C    CA     0.000000   12.01070000        0
    2058 CNT  1    CNT  C    CA     0.000000   12.01070000        0
    2059 CNT  1    CNT  C    CA     0.000000   12.01070000        0
    2060 CNT  1    CNT  C    CA     0.000000   12.01070000        0
    2061 CNT  1    CNT  C    CA     0.000000   12.01070000        0
    2062 CNT  1    CNT  C    CA     0.000000   12.01070000        0
    2063 CNT  1    CNT  C    CA     0.000000   12.01070000        0
    2064 CNT  1    CNT  C    CA     0.000000   12.01070000        0
    2065 CNT  1    CNT  C    CA     0.000000   12.01070000        0
    2066 CNT  1    CNT  C    CA     0.000000   12.01070000        0
    2067 CNT  1    CNT  C    CA     0.000000   12.01070000        0
    2068 CNT  1    CNT  C    CA     0.000000   12.01070000        0
    2069 CNT  1    CNT  C    CA     0.000000   12.01070000        0
    2070 CNT  1    CNT  C    CA     0.000000   12.01070000        0
    2071 CNT  1    CNT  C    CA     0.000000   12.01070000        0
    2072 CNT  1    CNT  C    CA     0.000000   12.01070000        0
    2073 CNT  1    CNT  C    CA     0.000000   12.01070000        0
    2074 CNT  1    CNT  C    CA     0.000000   12.01070000        0
    2075 CNT  1    CNT  C    CA     0.000000   12.01070000        0
    2076 CNT  1    CNT  C    CA     0.000000   12.01070000        0
    2077 CNT  1    CNT  C    CA     0.000000   12.01070000        0
    2078 CNT  1    CNT  C    CA     0.000000   12.01070000        0
    2079 CNT  1    CNT  C    CA     0.000000   12.01070000        0
    2080 CNT  1    CNT  C    CA     0.000000   12.01070000        0
    2081 CNT  1    CNT  C    CA     0.000000   12.01070000        0
    2082 CNT  1    CNT  C    CA     0.000000   12.01070000        0
    2083 CNT  1    CNT  C    CA     0.000000   12.01070000        0
    2084 CNT  1    CNT  C    CA     0.000000   12.01070000        0
    2085 CNT  1    CNT  C    CA     0.000000   12.01070000        0
    2086 CNT  1    CNT  C    CA     0.000000   12.01070000        0
    2087 CNT  1    CNT  C    CA     0.000000   12.01070000        0
    2088 CNT  1    CNT  C    CA     0.000000   12.01070000        0
    2089 CNT  1    CNT  C    CA     0.000000   12.01070000        0
    2090 CNT  1    CNT  C    CA     0.000000   12.01070000        0
    2091 CNT  1    CNT  C    CA     0.000000   12.01070000        0
    2092 CNT  1    CNT  C    CA     0.000000   12.01070000        0
    2093 CNT  1    CNT  C    CA     0.000000   12.01070000        0
    2094 CNT  1    CNT  C    CA     0.000000   12.01070000        0
    2095 CNT  1    CNT  C    CA     0.000000   12.01070000        0
    2096 CNT  1    CNT  C    CA     0.000000   12.01070000        0
    2097 CNT  1    CNT  C    CA     0.000000   12.01070000        0
    2098 CNT  1    CNT  C    CA     0.000000   12.01070000        0
    2099 CNT  1    CNT  C    CA     0.000000   12.01070000        0
    2100 CNT  1    CNT  C    CA     0.000000   12.01070000        0
    2101 CNT  1    CNT  C    CA     0.000000   12.01070000        0
    2102 CNT  1    CNT  C    CA     0.000000   12.01070000        0
    2103 CNT  1    CNT  C    CA     0.000000   12.01070000        0
    2104 CNT  1    CNT  C    CA     0.000000   12.01070000        0
    2105 CNT  1    CNT  C    CA     0.000000   12.01070000        0
    2106 CNT  1    CNT  C    CA     0.000000   12.01070000        0
    2107 CNT  1    CNT  C    CA     0.000000   12.01070000        0
    2108 CNT  1    CNT  C    CA     0.000000   12.01070000        0
    2109 CNT  1    CNT  C    CA     0.000000   12.01070000        0
    2110 CNT  1    CNT  C    CA     0.000000   12.01070000        0
    2111 CNT  1    CNT  C    CA     0.000000   12.01070000        0
    2112 CNT  1    CNT  C    CA     0.000000   12.01070000        0
    2113 CNT  1    CNT  C    CA     0.000000   12.01070000        0
    2114 CNT  1    CNT  C    CA     0.000000   12.01070000        0
    2115 CNT  1    CNT  C    CA     0.000000   12.01070000        0
    2116 CNT  1    CNT  C    CA     0.000000   12.01070000        0
    2117 CNT  1    CNT  C    CA     0.000000   12.01070000        0
    2118 CNT  1    CNT  C    CA     0.000000   12.01070000        0
    2119 CNT  1    CNT  C    CA     0.000000   12.01070000        0
    2120 CNT  1    CNT  C    CA     0.000000   12.01070000        0
    2121 CNT  1    CNT  C    CA     0.000000   12.01070000        0
    2122 CNT  1    CNT  C    CA     0.000000   12.01070000        0
    2123 CNT  1    CNT  C    CA     0.000000   12.01070000        0
    2124 CNT  1    CNT  C    CA     0.000000   12.01070000        0
    2125 CNT  1    CNT  C    CA     0.000000   12.01070000        0
    2126 CNT  1    CNT  C    CA     0.000000   12.01070000        0
    2127 CNT  1    CNT  C    CA     0.000000   12.01070000        0
    2128 CNT  1    CNT  C    CA     0.000000   12.01070000        0
    2129 CNT  1    CNT  C    CA     0.000000   12.01070000        0
    2130 CNT  1    CNT  C    CA     0.000000   12.01070000        0
    2131 CNT  1    CNT  C    CA     0.000000   12.01070000        0
    2132 CNT  1    CNT  C    CA     0.000000   12.01070000        0
    2133 CNT  1    CNT  C    CA     0.000000   12.01070000        0
    2134 CNT  1    CNT  C    CA     0.000000   12.01070000        0
    2135 CNT  1    CNT  C    CA     0.000000   12.01070000        0
    2136 CNT  1    CNT  C    CA     0.000000   12.01070000        0
    2137 CNT  1    CNT  C    CA     0.000000   12.01070000        0
    2138 CNT  1    CNT  C    CA     0.000000   12.01070000        0
    2139 CNT  1    CNT  C    CA     0.000000   12.01070000        0
    2140 CNT  1    CNT  C    CA     0.000000   12.01070000        0
    2141 CNT  1    CNT  C    CA     0.000000   12.01070000        0
    2142 CNT  1    CNT  C    CA     0.000000   12.01070000        0
    2143 CNT  1    CNT  C    CA     0.000000   12.01070000        0
    2144 CNT  1    CNT  C    CA     0.000000   12.01070000        0
    2145 CNT  1    CNT  C    CA     0.000000   12.01070000        0
    2146 CNT  1    CNT  C    CA     0.000000   12.01070000        0
    2147 CNT  1    CNT  C    CA     0.000000   12.01070000        0
    2148 CNT  1    CNT  C    CA     0.000000   12.01070000        0
    2149 CNT  1    CNT  C    CA     0.000000   12.01070000        0
    2150 CNT  1    CNT  C    CA     0.000000   12.01070000        0
    2151 CNT  1    CNT  C    CA     0.000000   12.01070000        0
    2152 CNT  1    CNT  C    CA     0.000000   12.01070000        0
    2153 CNT  1    CNT  C    CA     0.000000   12.01070000        0
    2154 CNT  1    CNT  C    CA     0.000000   12.01070000        0
    2155 CNT  1    CNT  C    CA     0.000000   12.01070000        0
    2156 CNT  1    CNT  C    CA     0.000000   12.01070000        0
    2157 CNT  1    CNT  C    CA     0.000000   12.01070000        0
    2158 CNT  1    CNT  C    CA     0.000000   12.01070000        0
    2159 CNT  1    CNT  C    CA     0.000000   12.01070000        0
    2160 CNT  1    CNT  C    CA     0.000000   12.01070000        0
    2161 CNT  1    CNT  C    CA     0.000000   12.01070000        0
    2162 CNT  1    CNT  C    CA     0.000000   12.01070000        0
    2163 CNT  1    CNT  C    CA     0.000000   12.01070000        0
    2164 CNT  1    CNT  C    CA     0.000000   12.01070000        0
    2165 CNT  1    CNT  C    CA     0.000000   12.01070000        0
    2166 CNT  1    CNT  C    CA     0.000000   12.01070000        0
    2167 CNT  1    CNT  C    CA     0.000000   12.01070000        0
    2168 CNT  1    CNT  C    CA     0.000000   12.01070000        0
    2169 CNT  1    CNT  C    CA     0.000000   12.01070000        0
    2170 CNT  1    CNT  C    CA     0.000000   12.01070000        0
    2171 CNT  1    CNT  C    CA     0.000000   12.01070000        0
    2172 CNT  1    CNT  C    CA     0.000000   12.01070000        0
    2173 CNT  1    CNT  C    CA     0.000000   12.01070000        0
    2174 CNT  1    CNT  C    CA     0.000000   12.01070000        0
    2175 CNT  1    CNT  C    CA     0.000000   12.01070000        0
    2176 CNT  1    CNT  C    CA     0.000000   12.01070000        0
    2177 CNT  1    CNT  C    CA     0.000000   12.01070000        0
    2178 CNT  1    CNT  C    CA     0.000000   12.01070000        0
    2179 CNT  1    CNT  C    CA     0.000000   12.01070000        0
    2180 CNT  1    CNT  C    CA     0.000000   12.01070000        0
    2181 CNT  1    CNT  C    CA     0.000000   12.01070000        0
    2182 CNT  1    CNT  C    CA     0.000000   12.01070000        0
    2183 CNT  1    CNT  C    CA     0.000000   12.01070000        0
    2184 CNT  1    CNT  C    CA     0.000000   12.01070000        0
    2185 CNT  1    CNT  C    CA     0.000000   12.01070000        0
    2186 CNT  1    CNT  C    CA     0.000000   12.01070000        0
    2187 CNT  1    CNT  C    CA     0.000000   12.01070000        0
    2188 CNT  1    CNT  C    CA     0.000000   12.01070000        0
    2189 CNT  1    CNT  C    CA     0.000000   12.01070000        0
    2190 CNT  1    CNT  C    CA     0.000000   12.01070000        0
    2191 CNT  1    CNT  C    CA     0.000000   12.01070000        0
    2192 CNT  1    CNT  C    CA     0.000000   12.01070000        0
    2193 CNT  1    CNT  C    CA     0.000000   12.01070000        0
    2194 CNT  1    CNT  C    CA     0.000000   12.01070000        0
    2195 CNT  1    CNT  C    CA     0.000000   12.01070000        0
    2196 CNT  1    CNT  C    CA     0.000000   12.01070000        0
    2197 CNT  1    CNT  C    CA     0.000000   12.01070000        0
    2198 CNT  1    CNT  C    CA     0.000000   12.01070000        0
    2199 CNT  1    CNT  C    CA     0.000000   12.01070000        0
    2200 CNT  1    CNT  C    CA     0.000000   12.01070000        0
    2201 CNT  1    CNT  C    CA     0.000000   12.01070000        0
    2202 CNT  1    CNT  C    CA     0.000000   12.01070000        0
    2203 CNT  1    CNT  C    CA     0.000000   12.01070000        0
    2204 CNT  1    CNT  C    CA     0.000000   12.01070000        0
    2205 CNT  1    CNT  C    CA     0.000000   12.01070000        0
    2206 CNT  1    CNT  C    CA     0.000000   12.01070000        0
    2207 CNT  1    CNT  C    CA     0.000000   12.01070000        0
    2208 CNT  1    CNT  C    CA     0.000000   12.01070000        0
    2209 CNT  1    CNT  C    CA     0.000000   12.01070000        0
    2210 CNT  1    CNT  C    CA     0.000000   12.01070000        0
    2211 CNT  1    CNT  C    CA     0.000000   12.01070000        0
    2212 CNT  1    CNT  C    CA     0.000000   12.01070000        0
    2213 CNT  1    CNT  C    CA     0.000000   12.01070000        0
    2214 CNT  1    CNT  C    CA     0.000000   12.01070000        0
    2215 CNT  1    CNT  C    CA     0.000000   12.01070000        0
    2216 CNT  1    CNT  C    CA     0.000000   12.01070000        0
    2217 CNT  1    CNT  C    CA     0.000000   12.01070000        0
    2218 CNT  1    CNT  C    CA     0.000000   12.01070000        0
    2219 CNT  1    CNT  C    CA     0.000000   12.01070000        0
    2220 CNT  1    CNT  C    CA     0.000000   12.01070000        0
    2221 CNT  1    CNT  C    CA     0.000000   12.01070000        0
    2222 CNT  1    CNT  C    CA     0.000000   12.01070000        0
    2223 CNT  1    CNT  C    CA     0.000000   12.01070000        0
    2224 CNT  1    CNT  C    CA     0.000000   12.01070000        0
    2225 CNT  1    CNT  C    CA     0.000000   12.01070000        0
    2226 CNT  1    CNT  C    CA     0.000000   12.01070000        0
    2227 CNT  1    CNT  C    CA     0.000000   12.01070000        0
    2228 CNT  1    CNT  C    CA     0.000000   12.01070000        0
    2229 CNT  1    CNT  C    CA     0.000000   12.01070000        0
    2230 CNT  1    CNT  C    CA     0.000000   12.01070000        0
    2231 CNT  1    CNT  C    CA     0.000000   12.01070000        0
    2232 CNT  1    CNT  C    CA     0.000000   12.01070000        0
    2233 CNT  1    CNT  C    CA     0.000000   12.01070000        0
    2234 CNT  1    CNT  C    CA     0.000000   12.01070000        0
    2235 CNT  1    CNT  C    CA     0.000000   12.01070000        0
    2236 CNT  1    CNT  C    CA     0.000000   12.01070000        0
    2237 CNT  1    CNT  C    CA     0.000000   12.01070000        0
    2238 CNT  1    CNT  C    CA     0.000000   12.01070000        0
    2239 CNT  1    CNT  C    CA     0.000000   12.01070000        0
    2240 CNT  1    CNT  C    CA     0.000000   12.01070000        0
    2241 CNT  1    CNT  C    CA     0.000000   12.01070000        0
    2242 CNT  1    CNT  C    CA     0.000000   12.01070000        0
    2243 CNT  1    CNT  C    CA     0.000000   12.01070000        0
    2244 CNT  1    CNT  C    CA     0.000000   12.01070000        0
    2245 CNT  1    CNT  C    CA     0.000000   12.01070000        0
    2246 CNT  1    CNT  C    CA     0.000000   12.01070000        0
    2247 CNT  1    CNT  C    CA     0.000000   12.01070000        0
    2248 CNT  1    CNT  C    CA     0.000000   12.01070000        0
    2249 CNT  1    CNT  C    CA     0.000000   12.01070000        0
    2250 CNT  1    CNT  C    CA     0.000000   12.01070000        0
    2251 CNT  1    CNT  C    CA     0.000000   12.01070000        0
    2252 CNT  1    CNT  C    CA     0.000000   12.01070000        0
    2253 CNT  1    CNT  C    CA     0.000000   12.01070000        0
    2254 CNT  1    CNT  C    CA     0.000000   12.01070000        0
    2255 CNT  1    CNT  C    CA     0.000000   12.01070000        0
    2256 CNT  1    CNT  C    CA     0.000000   12.01070000        0
    2257 CNT  1    CNT  C    CA     0.000000   12.01070000        0
    2258 CNT  1    CNT  C    CA     0.000000   12.01070000        0
    2259 CNT  1    CNT  C    CA     0.000000   12.01070000        0
    2260 CNT  1    CNT  C    CA     0.000000   12.01070000        0
    2261 CNT  1    CNT  C    CA     0.000000   12.01070000        0
    2262 CNT  1    CNT  C    CA     0.000000   12.01070000        0
    2263 CNT  1    CNT  C    CA     0.000000   12.01070000        0
    2264 CNT  1    CNT  C    CA     0.000000   12.01070000        0
    2265 CNT  1    CNT  C    CA     0.000000   12.01070000        0
    2266 CNT  1    CNT  C    CA     0.000000   12.01070000        0
    2267 CNT  1    CNT  C    CA     0.000000   12.01070000        0
    2268 CNT  1    CNT  C    CA     0.000000   12.01070000        0
    2269 CNT  1    CNT  C    CA     0.000000   12.01070000        0
    2270 CNT  1    CNT  C    CA     0.000000   12.01070000        0
    2271 CNT  1    CNT  C    CA     0.000000   12.01070000        0
    2272 CNT  1    CNT  C    CA     0.000000   12.01070000        0
    2273 CNT  1    CNT  C    CA     0.000000   12.01070000        0
    2274 CNT  1    CNT  C    CA     0.000000   12.01070000        0
    2275 CNT  1    CNT  C    CA     0.000000   12.01070000        0
    2276 CNT  1    CNT  C    CA     0.000000   12.01070000        0
    2277 CNT  1    CNT  C    CA     0.000000   12.01070000        0
    2278 CNT  1    CNT  C    CA     0.000000   12.01070000        0
    2279 CNT  1    CNT  C    CA     0.000000   12.01070000        0
    2280 CNT  1    CNT  C    CA     0.000000   12.01070000        0
    2281 CNT  1    CNT  C    CA     0.000000   12.01070000        0
    2282 CNT  1    CNT  C    CA     0.000000   12.01070000        0
    2283 CNT  1    CNT  C    CA     0.000000   12.01070000        0
    2284 CNT  1    CNT  C    CA     0.000000   12.01070000        0
    2285 CNT  1    CNT  C    CA     0.000000   12.01070000        0
    2286 CNT  1    CNT  C    CA     0.000000   12.01070000        0
    2287 CNT  1    CNT  C    CA     0.000000   12.01070000        0
    2288 CNT  1    CNT  C    CA     0.000000   12.01070000        0
    2289 CNT  1    CNT  C    CA     0.000000   12.01070000        0
    2290 CNT  1    CNT  C    CA     0.000000   12.01070000        0
    2291 CNT  1    CNT  C    CA     0.000000   12.01070000        0
    2292 CNT  1    CNT  C    CA     0.000000   12.01070000        0
    2293 CNT  1    CNT  C    CA     0.000000   12.01070000        0
    2294 CNT  1    CNT  C    CA     0.000000   12.01070000        0
    2295 CNT  1    CNT  C    CA     0.000000   12.01070000        0
    2296 CNT  1    CNT  C    CA     0.000000   12.01070000        0
    2297 CNT  1    CNT  C    CA     0.000000   12.01070000        0
    2298 CNT  1    CNT  C    CA     0.000000   12.01070000        0
    2299 CNT  1    CNT  C    CA     0.000000   12.01070000        0
    2300 CNT  1    CNT  C    CA     0.000000   12.01070000        0
    2301 CNT  1    CNT  C    CA     0.000000   12.01070000        0
    2302 CNT  1    CNT  C    CA     0.000000   12.01070000        0
    2303 CNT  1    CNT  C    CA     0.000000   12.01070000        0
    2304 CNT  1    CNT  C    CA     0.000000   12.01070000        0
    2305 CNT  1    CNT  C    CA     0.000000   12.01070000        0
    2306 CNT  1    CNT  C    CA     0.000000   12.01070000        0
    2307 CNT  1    CNT  C    CA     0.000000   12.01070000        0
    2308 CNT  1    CNT  C    CA     0.000000   12.01070000        0
    2309 CNT  1    CNT  C    CA     0.000000   12.01070000        0
    2310 CNT  1    CNT  C    CA     0.000000   12.01070000        0
    2311 CNT  1    CNT  C    CA     0.000000   12.01070000        0
    2312 CNT  1    CNT  C    CA     0.000000   12.01070000        0
    2313 CNT  1    CNT  C    CA     0.000000   12.01070000        0
    2314 CNT  1    CNT  C    CA     0.000000   12.01070000        0
    2315 CNT  1    CNT  C    CA     0.000000   12.01070000        0
    2316 CNT  1    CNT  C    CA     0.000000   12.01070000        0
    2317 CNT  1    CNT  C    CA     0.000000   12.01070000        0
    2318 CNT  1    CNT  C    CA     0.000000   12.01070000        0
    2319 CNT  1    CNT  C    CA     0.000000   12.01070000        0
    2320 CNT  1    CNT  C    CA     0.000000   12.01070000        0
    2321 CNT  1    CNT  C    CA     0.000000   12.01070000        0
    2322 CNT  1    CNT  C    CA     0.000000   12.01070000        0
    2323 CNT  1    CNT  C    CA     0.000000   12.01070000        0
    2324 CNT  1    CNT  C    CA     0.000000   12.01070000        0
    2325 CNT  1    CNT  C    CA     0.000000   12.01070000        0
    2326 CNT  1    CNT  C    CA     0.000000   12.01070000        0
    2327 CNT  1    CNT  C    CA     0.000000   12.01070000        0
    2328 CNT  1    CNT  C    CA     0.000000   12.01070000        0
    2329 CNT  1    CNT  C    CA     0.000000   12.01070000        0
    2330 CNT  1    CNT  C    CA     0.000000   12.01070000        0
    2331 CNT  1    CNT  C    CA     0.000000   12.01070000        0
    2332 CNT  1    CNT  C    CA     0.000000   12.01070000        0
    2333 CNT  1    CNT  C    CA     0.000000   12.01070000        0
    2334 CNT  1    CNT  C    CA     0.000000   12.01070000        0
    2335 CNT  1    CNT  C    CA     0.000000   12.01070000        0
    2336 CNT  1    CNT  C    CA     0.000000   12.01070000        0
    2337 CNT  1    CNT  C    CA     0.000000   12.01070000        0
    2338 CNT  1    CNT  C    CA     0.000000   12.01070000        0
    2339 CNT  1    CNT  C    CA     0.000000   12.01070000        0
    2340 CNT  1    CNT  C    CA     0.000000   12.01070000        0
    2341 CNT  1    CNT  C    CA     0.000000   12.01070000        0
    2342 CNT  1    CNT  C    CA     0.000000   12.01070000        0
    2343 CNT  1    CNT  C    CA     0.000000   12.01070000        0
    2344 CNT  1    CNT  C    CA     0.000000   12.01070000        0
    2345 CNT  1    CNT  C    CA     0.000000   12.01070000        0
    2346 CNT  1    CNT  C    CA     0.000000   12.01070000        0
    2347 CNT  1    CNT  C    CA     0.000000   12.01070000        0
    2348 CNT  1    CNT  C    CA     0.000000   12.01070000        0
    2349 CNT  1    CNT  C    CA     0.000000   12.01070000        0
    2350 CNT  1    CNT  C    CA     0.000000   12.01070000        0
    2351 CNT  1    CNT  C    CA     0.000000   12.01070000        0
    2352 CNT  1    CNT  C    CA     0.000000   12.01070000        0
    2353 CNT  1    CNT  C    CA     0.000000   12.01070000        0
    2354 CNT  1    CNT  C    CA     0.000000   12.01070000        0
    2355 CNT  1    CNT  C    CA     0.000000   12.01070000        0
    2356 CNT  1    CNT  C    CA     0.000000   12.01070000        0
    2357 CNT  1    CNT  C    CA     0.000000   12.01070000        0
    2358 CNT  1    CNT  C    CA     0.000000   12.01070000        0
    2359 CNT  1    CNT  C    CA     0.000000   12.01070000        0
    2360 CNT  1    CNT  C    CA     0.000000   12.01070000        0
    2361 CNT  1    CNT  C    CA     0.000000   12.01070000        0
    2362 CNT  1    CNT  C    CA     0.000000   12.01070000        0
    2363 CNT  1    CNT  C    CA     0.000000   12.01070000        0
    2364 CNT  1    CNT  C    CA     0.000000   12.01070000        0
    2365 CNT  1    CNT  C    CA     0.000000   12.01070000        0
    2366 CNT  1    CNT  C    CA     0.000000   12.01070000        0
    2367 CNT  1    CNT  C    CA     0.000000   12.01070000        0
    2368 CNT  1    CNT  C    CA     0.000000   12.01070000        0
    2369 CNT  1    CNT  C    CA     0.000000   12.01070000        0
    2370 CNT  1    CNT  C    CA     0.000000   12.01070000        0
    2371 CNT  1    CNT  C    CA     0.000000   12.01070000        0
    2372 CNT  1    CNT  C    CA     0.000000   12.01070000        0
    2373 CNT  1    CNT  C    CA     0.000000   12.01070000        0
    2374 CNT  1    CNT  C    CA     0.000000   12.01070000        0
    2375 CNT  1    CNT  C    CA     0.000000   12.01070000        0
    2376 CNT  1    CNT  C    CA     0.000000   12.01070000        0
    2377 CNT  1    CNT  C    CA     0.000000   12.01070000        0
    2378 CNT  1    CNT  C    CA     0.000000   12.01070000        0
    2379 CNT  1    CNT  C    CA     0.000000   12.01070000        0
    2380 CNT  1    CNT  C    CA     0.000000   12.01070000        0
    2381 CNT  1    CNT  C    CA     0.000000   12.01070000        0
    2382 CNT  1    CNT  C    CA     0.000000   12.01070000        0
    2383 CNT  1    CNT  C    CA     0.000000   12.01070000        0
    2384 CNT  1    CNT  C    CA     0.000000   12.01070000        0
    2385 CNT  1    CNT  C    CA     0.000000   12.01070000        0
    2386 CNT  1    CNT  C    CA     0.000000   12.01070000        0
    2387 CNT  1    CNT  C    CA     0.000000   12.01070000        0
    2388 CNT  1    CNT  C    CA     0.000000   12.01070000        0
    2389 CNT  1    CNT  C    CA     0.000000   12.01070000        0
    2390 CNT  1    CNT  C    CA     0.000000   12.01070000        0
    2391 CNT  1    CNT  C    CA     0.000000   12.01070000        0
    2392 CNT  1    CNT  C    CA     0.000000   12.01070000        0
    2393 CNT  1    CNT  C    CA     0.000000   12.01070000        0
    2394 CNT  1    CNT  C    CA     0.000000   12.01070000        0
    2395 CNT  1    CNT  C    CA     0.000000   12.01070000        0
    2396 CNT  1    CNT  C    CA     0.000000   12.01070000        0
    2397 CNT  1    CNT  C    CA     0.000000   12.01070000        0
    2398 CNT  1    CNT  C    CA     0.000000   12.01070000        0
    2399 CNT  1    CNT  C    CA     0.000000   12.01070000        0
    2400 CNT  1    CNT  C    CA     0.000000   12.01070000        0
    2401 CNT  1    CNT  C    CA     0.000000   12.01070000        0
    2402 CNT  1    CNT  C    CA     0.000000   12.01070000        0
    2403 CNT  1    CNT  C    CA     0.000000   12.01070000        0
    2404 CNT  1    CNT  C    CA     0.000000   12.01070000        0
    2405 CNT  1    CNT  C    CA     0.000000   12.01070000        0
    2406 CNT  1    CNT  C    CA     0.000000   12.01070000        0
    2407 CNT  1    CNT  C    CA     0.000000   12.01070000        0
    2408 CNT  1    CNT  C    CA     0.000000   12.01070000        0
    2409 CNT  1    CNT  C    CA     0.000000   12.01070000        0
    2410 CNT  1    CNT  C    CA     0.000000   12.01070000        0
    2411 CNT  1    CNT  C    CA     0.000000   12.01070000        0
    2412 CNT  1    CNT  C    CA     0.000000   12.01070000        0
    2413 CNT  1    CNT  C    CA     0.000000   12.01070000        0
    2414 CNT  1    CNT  C    CA     0.000000   12.01070000        0
    2415 CNT  1    CNT  C    CA     0.000000   12.01070000        0
    2416 CNT  1    CNT  C    CA     0.000000   12.01070000        0
    2417 CNT  1    CNT  C    CA     0.000000   12.01070000        0
    2418 CNT  1    CNT  C    CA     0.000000   12.01070000        0
    2419 CNT  1    CNT  C    CA     0.000000   12.01070000        0
    2420 CNT  1    CNT  C    CA     0.000000   12.01070000        0
    2421 CNT  1    CNT  C    CA     0.000000   12.01070000        0
    2422 CNT  1    CNT  C    CA     0.000000   12.01070000        0
    2423 CNT  1    CNT  C    CA     0.000000   12.01070000        0
    2424 CNT  1    CNT  C    CA     0.000000   12.01070000        0
    2425 CNT  1    CNT  C    CA     0.000000   12.01070000        0
    2426 CNT  1    CNT  C    CA     0.000000   12.01070000        0
    2427 CNT  1    CNT  C    CA     0.000000   12.01070000        0
    2428 CNT  1    CNT  C    CA     0.000000   12.01070000        0
    2429 CNT  1    CNT  C    CA     0.000000   12.01070000        0
    2430 CNT  1    CNT  C    CA     0.000000   12.01070000        0
    2431 CNT  1    CNT  C    CA     0.000000   12.01070000        0
    2432 CNT  1    CNT  C    CA     0.000000   12.01070000        0
    2433 CNT  1    CNT  C    CA     0.000000   12.01070000        0
    2434 CNT  1    CNT  C    CA     0.000000   12.01070000        0
    2435 CNT  1    CNT  C    CA     0.000000   12.01070000        0
    2436 CNT  1    CNT  C    CA     0.000000   12.01070000        0
    2437 CNT  1    CNT  C    CA     0.000000   12.01070000        0
    2438 CNT  1    CNT  C    CA     0.000000   12.01070000        0
    2439 CNT  1    CNT  C    CA     0.000000   12.01070000        0
    2440 CNT  1    CNT  C    CA     0.000000   12.01070000        0
    2441 CNT  1    CNT  C    CA     0.000000   12.01070000        0
    2442 CNT  1    CNT  C    CA     0.000000   12.01070000        0
    2443 CNT  1    CNT  C    CA     0.000000   12.01070000        0
    2444 CNT  1    CNT  C    CA     0.000000   12.01070000        0
    2445 CNT  1    CNT  C    CA     0.000000   12.01070000        0
    2446 CNT  1    CNT  C    CA     0.000000   12.01070000        0
    2447 CNT  1    CNT  C    CA     0.000000   12.01070000        0
    2448 CNT  1    CNT  C    CA     0.000000   12.01070000        0
    2449 CNT  1    CNT  C    CA     0.000000   12.01070000        0
    2450 CNT  1    CNT  C    CA     0.000000   12.01070000        0
    2451 CNT  1    CNT  C    CA     0.000000   12.01070000        0
    2452 CNT  1    CNT  C    CA     0.000000   12.01070000        0
    2453 CNT  1    CNT  C    CA     0.000000   12.01070000        0
    2454 CNT  1    CNT  C    CA     0.000000   12.01070000        0
    2455 CNT  1    CNT  C    CA     0.000000   12.01070000        0
    2456 CNT  1    CNT  C    CA     0.000000   12.01070000        0
    2457 CNT  1    CNT  C    CA     0.000000   12.01070000        0
    2458 CNT  1    CNT  C    CA     0.000000   12.01070000        0
    2459 CNT  1    CNT  C    CA     0.000000   12.01070000        0
    2460 CNT  1    CNT  C    CA     0.000000   12.01070000        0
    2461 CNT  1    CNT  C    CA     0.000000   12.01070000        0
    2462 CNT  1    CNT  C    CA     0.000000   12.01070000        0
    2463 CNT  1    CNT  C    CA     0.000000   12.01070000        0
    2464 CNT  1    CNT  C    CA     0.000000   12.01070000        0
    2465 CNT  1    CNT  C    CA     0.000000   12.01070000        0
    2466 CNT  1    CNT  C    CA     0.000000   12.01070000        0
    2467 CNT  1    CNT  C    CA     0.000000   12.01070000        0
    2468 CNT  1    CNT  C    CA     0.000000   12.01070000        0
    2469 CNT  1    CNT  C    CA     0.000000   12.01070000        0
    2470 CNT  1    CNT  C    CA     0.000000   12.01070000        0
    2471 CNT  1    CNT  C    CA     0.000000   12.01070000        0
    2472 CNT  1    CNT  C    CA     0.000000   12.01070000        0
    2473 CNT  1    CNT  C    CA     0.000000   12.01070000        0
    2474 CNT  1    CNT  C    CA     0.000000   12.01070000        0
    2475 CNT  1    CNT  C    CA     0.000000   12.01070000        0
    2476 CNT  1    CNT  C    CA     0.000000   12.01070000        0
    2477 CNT  1    CNT  C    CA     0.000000   12.01070000        0
    2478 CNT  1    CNT  C    CA     0.000000   12.01070000        0
    2479 CNT  1    CNT  C    CA     0.000000   12.01070000        0
    2480 CNT  1    CNT  C    CA     0.000000   12.01070000        0
    2481 CNT  1    CNT  C    CA     0.000000   12.01070000        0
    2482 CNT  1    CNT  C    CA     0.000000   12.01070000        0
    2483 CNT  1    CNT  C    CA     0.000000   12.01070000        0
    2484 CNT  1    CNT  C    CA     0.000000   12.01070000        0
    2485 CNT  1    CNT  C    CA     0.000000   12.01070000        0
    2486 CNT  1    CNT  C    CA     0.000000   12.01070000        0
    2487 CNT  1    CNT  C    CA     0.000000   12.01070000        0
    2488 CNT  1    CNT  C    CA     0.000000   12.01070000        0
    2489 CNT  1    CNT  C    CA     0.000000   12.01070000        0
    2490 CNT  1    CNT  C    CA     0.000000   12.01070000        0
    2491 CNT  1    CNT  C    CA     0.000000   12.01070000        0
    2492 CNT  1    CNT  C    CA     0.000000   12.01070000        0
    2493 CNT  1    CNT  C    CA     0.000000   12.01070000        0
    2494 CNT  1    CNT  C    CA     0.000000   12.01070000        0
    2495 CNT  1    CNT  C    CA     0.000000   12.01070000        0
    2496 CNT  1    CNT  C    CA     0.000000   12.01070000        0
    2497 CNT  1    CNT  C    CA     0.000000   12.01070000        0
    2498 CNT  1    CNT  C    CA     0.000000   12.01070000        0
    2499 CNT  1    CNT  C    CA     0.000000   12.01070000        0
    2500 CNT  1    CNT  C    CA     0.000000   12.01070000        0
    2501 CNT  1    CNT  C    CA     0.000000   12.01070000        0
    2502 CNT  1    CNT  C    CA     0.000000   12.01070000        0
    2503 CNT  1    CNT  C    CA     0.000000   12.01070000        0
    2504 CNT  1    CNT  C    CA     0.000000   12.01070000        0
    2505 CNT  1    CNT  C    CA     0.000000   12.01070000        0
    2506 CNT  1    CNT  C    CA     0.000000   12.01070000        0
    2507 CNT  1    CNT  C    CA     0.000000   12.01070000        0
    2508 CNT  1    CNT  C    CA     0.000000   12.01070000        0
    2509 CNT  1    CNT  C    CA     0.000000   12.01070000        0
    2510 CNT  1    CNT  C    CA     0.000000   12.01070000        0
    2511 CNT  1    CNT  C    CA     0.000000   12.01070000        0
    2512 CNT  1    CNT  C    CA     0.000000   12.01070000        0
    2513 CNT  1    CNT  C    CA     0.000000   12.01070000        0
    2514 CNT  1    CNT  C    CA     0.000000   12.01070000        0
    2515 CNT  1    CNT  C    CA     0.000000   12.01070000        0
    2516 CNT  1    CNT  C    CA     0.000000   12.01070000        0
    2517 CNT  1    CNT  C    CA     0.000000   12.01070000        0
    2518 CNT  1    CNT  C    CA     0.000000   12.01070000        0
    2519 CNT  1    CNT  C    CA     0.000000   12.01070000        0
    2520 CNT  1    CNT  C    CA     0.000000   12.01070000        0
    2521 CNT  1    CNT  C    CA     0.000000   12.01070000        0
    2522 CNT  1    CNT  C    CA     0.000000   12.01070000        0
    2523 CNT  1    CNT  C    CA     0.000000   12.01070000        0
    2524 CNT  1    CNT  C    CA     0.000000   12.01070000        0
    2525 CNT  1    CNT  C    CA     0.000000   12.01070000        0
    2526 CNT  1    CNT  C    CA     0.000000   12.01070000        0
    2527 CNT  1    CNT  C    CA     0.000000   12.01070000        0
    2528 CNT  1    CNT  C    CA     0.000000   12.01070000        0
    2529 CNT  1    CNT  C    CA     0.000000   12.01070000        0
    2530 CNT  1    CNT  C    CA     0.000000   12.01070000        0
    2531 CNT  1    CNT  C    CA     0.000000   12.01070000        0
    2532 CNT  1    CNT  C    CA     0.000000   12.01070000        0
    2533 CNT  1    CNT  C    CA     0.000000   12.01070000        0
    2534 CNT  1    CNT  C    CA     0.000000   12.01070000        0
    2535 CNT  1    CNT  C    CA     0.000000   12.01070000        0
    2536 CNT  1    CNT  O    OX     0.000000   15.99940000        0
    2537 CNT  1    CNT  O    OX     0.000000   15.99940000        0
    2538 CNT  1    CNT  C    CA     0.000000   12.01070000        0
    2539 CNT  1    CNT  C    CA     0.000000   12.01070000        0
    2540 CNT  1    CNT  C    CA     0.000000   12.01070000        0
    2541 CNT  1    CNT  C    CA     0.000000   12.01070000        0
    2542 CNT  1    CNT  C    CA     0.000000   12.01070000        0
    2543 CNT  1    CNT  C    CA     0.000000   12.01070000        0
    2544 CNT  1    CNT  C    CA     0.000000   12.01070000        0
    2545 CNT  1    CNT  C    CA     0.000000   12.01070000        0
    2546 CNT  1    CNT  C    CA     0.000000   12.01070000        0
    2547 CNT  1    CNT  C    CA     0.000000   12.01070000        0
    2548 CNT  1    CNT  C    CA     0.000000   12.01070000        0
    2549 CNT  1    CNT  C    CA     0.000000   12.01070000        0
    2550 CNT  1    CNT  C    CA     0.000000   12.01070000        0
    2551 CNT  1    CNT  C    CA     0.000000   12.01070000        0
    2552 CNT  1    CNT  C    CA     0.000000   12.01070000        0
    2553 CNT  1    CNT  C    CA     0.000000   12.01070000        0
    2554 CNT  1    CNT  C    CA     0.000000   12.01070000        0
    2555 CNT  1    CNT  C    CA     0.000000   12.01070000        0
    2556 CNT  1    CNT  C    CA     0.000000   12.01070000        0
    2557 CNT  1    CNT  C    CA     0.000000   12.01070000        0
    2558 CNT  1    CNT  C    CA     0.000000   12.01070000        0
    2559 CNT  1    CNT  C    CA     0.000000   12.01070000        0
    2560 CNT  1    CNT  C    CA     0.000000   12.01070000        0
    2561 CNT  1    CNT  C    CA     0.000000   12.01070000        0
    2562 CNT  1    CNT  C    CA     0.000000   12.01070000        0
    2563 CNT  1    CNT  C    CA     0.000000   12.01070000        0
    2564 CNT  1    CNT  C    CA     0.000000   12.01070000        0
    2565 CNT  1    CNT  C    CA     0.000000   12.01070000        0
    2566 CNT  1    CNT  O    OX     0.000000   15.99940000        0
    2567 CNT  1    CNT  O    OX     0.000000   15.99940000        0
    2568 CNT  1    CNT  C    CA     0.000000   12.01070000        0
    2569 CNT  1    CNT  C    CA     0.000000   12.01070000        0
    2570 CNT  1    CNT  C    CA     0.000000   12.01070000        0
    2571 CNT  1    CNT  C    CA     0.000000   12.01070000        0
    2572 CNT  1    CNT  C    CA     0.000000   12.01070000        0
    2573 CNT  1    CNT  C    CA     0.000000   12.01070000        0
    2574 CNT  1    CNT  C    CA     0.000000   12.01070000        0
    2575 CNT  1    CNT  C    CA     0.000000   12.01070000        0
    2576 CNT  1    CNT  C    CA     0.000000   12.01070000        0
    2577 CNT  1    CNT  C    CA     0.000000   12.01070000        0
    2578 CNT  1    CNT  C    CA     0.000000   12.01070000        0
    2579 CNT  1    CNT  C    CA     0.000000   12.01070000        0
    2580 CNT  1    CNT  C    CA     0.000000   12.01070000        0
    2581 CNT  1    CNT  C    CA     0.000000   12.01070000        0
    2582 CNT  1    CNT  C    CA     0.000000   12.01070000        0
    2583 CNT  1    CNT  C    CA     0.000000   12.01070000        0
    2584 CNT  1    CNT  C    CA     0.000000   12.01070000        0
    2585 CNT  1    CNT  C    CA     0.000000   12.01070000        0
    2586 CNT  1    CNT  C    CA     0.000000   12.01070000        0
    2587 CNT  1    CNT  C    CA     0.000000   12.01070000        0
    2588 CNT  1    CNT  C    CA     0.000000   12.01070000        0
    2589 CNT  1    CNT  C    CA     0.000000   12.01070000        0
    2590 CNT  1    CNT  C    CA     0.000000   12.01070000        0
    2591 CNT  1    CNT  C    CA     0.000000   12.01070000        0
    2592 CNT  1    CNT  C    CA     0.000000   12.01070000        0
    2593 CNT  1    CNT  C    CA     0.000000   12.01070000        0
    2594 CNT  1    CNT  O    OX     0.000000   15.99940000        0
    2595 CNT  1    CNT  C    CA     0.000000   12.01070000        0
    2596 CNT  1    CNT  C    CA     0.000000   12.01070000        0
    2597 CNT  1    CNT  O    OX     0.000000   15.99940000        0
    2598 CNT  1    CNT  C    CA     0.000000   12.01070000        0
    2599 CNT  1    CNT  C    CA     0.000000   12.01070000        0
    2600 CNT  1    CNT  C    CA     0.000000   12.01070000        0
    2601 CNT  1    CNT  C    CA     0.000000   12.01070000        0
    2602 CNT  1    CNT  C    CA     0.000000   12.01070000        0
    2603 CNT  1    CNT  C    CA     0.000000   12.01070000        0
    2604 CNT  1    CNT  C    CA     0.000000   12.01070000        0
    2605 CNT  1    CNT  C    CA     0.000000   12.01070000        0
    2606 CNT  1    CNT  C    CA     0.000000   12.01070000        0
    2607 CNT  1    CNT  C    CA     0.000000   12.01070000        0
    2608 CNT  1    CNT  C    CA     0.000000   12.01070000        0
    2609 CNT  1    CNT  C    CA     0.000000   12.01070000        0
    2610 CNT  1    CNT  C    CA     0.000000   12.01070000        0
    2611 CNT  1    CNT  C    CA     0.000000   12.01070000        0
    2612 CNT  1    CNT  C    CA     0.000000   12.01070000        0
    2613 CNT  1    CNT  C    CA     0.000000   12.01070000        0
    2614 CNT  1    CNT  C    CA     0.000000   12.01070000        0
    2615 CNT  1    CNT  C    CA     0.000000   12.01070000        0
    2616 CNT  1    CNT  C    CA     0.000000   12.01070000        0
    2617 CNT  1    CNT  C    CA     0.000000   12.01070000        0
    2618 CNT  1    CNT  C    CA     0.000000   12.01070000        0
    2619 CNT  1    CNT  C    CA     0.000000   12.01070000        0
    2620 CNT  1    CNT  C    CA     0.000000   12.01070000        0
    2621 CNT  1    CNT  C    CA     0.000000   12.01070000        0
    2622 CNT  1    CNT  C    CA     0.000000   12.01070000        0
    2623 CNT  1    CNT  O    OX     0.000000   15.99940000        0
    2624 CNT  1    CNT  O    OX     0.000000   15.99940000        0
    2625 CNT  1    CNT  C    CA     0.000000   12.01070000        0
    2626 CNT  1    CNT  C    CA     0.000000   12.01070000        0
    2627 CNT  1    CNT  C    CA     0.000000   12.01070000        0
    2628 CNT  1    CNT  C    CA     0.000000   12.01070000        0
    2629 CNT  1    CNT  C    CA     0.000000   12.01070000        0
    2630 CNT  1    CNT  C    CA     0.000000   12.01070000        0
    2631 CNT  1    CNT  C    CA     0.000000   12.01070000        0
    2632 CNT  1    CNT  C    CA     0.000000   12.01070000        0
    2633 CNT  1    CNT  C    CA     0.000000   12.01070000        0
    2634 CNT  1    CNT  C    CA     0.000000   12.01070000        0
    2635 CNT  1    CNT  C    CA     0.000000   12.01070000        0
    2636 CNT  1    CNT  C    CA     0.000000   12.01070000        0
    2637 CNT  1    CNT  C    CA     0.000000   12.01070000        0
    2638 CNT  1    CNT  C    CA     0.000000   12.01070000        0
    2639 CNT  1    CNT  C    CA     0.000000   12.01070000        0
    2640 CNT  1    CNT  C    CA     0.000000   12.01070000        0
    2641 CNT  1    CNT  C    CA     0.000000   12.01070000        0
    2642 CNT  1    CNT  C    CA     0.000000   12.01070000        0
    2643 CNT  1    CNT  C    CA     0.000000   12.01070000        0
    2644 CNT  1    CNT  C    CA     0.000000   12.01070000        0
    2645 CNT  1    CNT  C    CA     0.000000   12.01070000        0
    2646 CNT  1    CNT  C    CA     0.000000   12.01070000        0
    2647 CNT  1    CNT  C    CA     0.000000   12.01070000        0
    2648 CNT  1    CNT  C    CA     0.000000   12.01070000        0
    2649 CNT  1    CNT  C    CA     0.000000   12.01070000        0
    2650 CNT  1    CNT  C    CA     0.000000   12.01070000        0
    2651 CNT  1    CNT  O    OX     0.000000   15.99940000        0
    2652 CNT  1    CNT  O    OX     0.000000   15.99940000        0
    2653 CNT  1    CNT  C    CA     0.000000   12.01070000        0
    2654 CNT  1    CNT  C    CA     0.000000   12.01070000        0
    2655 CNT  1    CNT  C    CA     0.000000   12.01070000        0
    2656 CNT  1    CNT  C    CA     0.000000   12.01070000        0
    2657 CNT  1    CNT  C    CA     0.000000   12.01070000        0
    2658 CNT  1    CNT  C    CA     0.000000   12.01070000        0
    2659 CNT  1    CNT  C    CA     0.000000   12.01070000        0
    2660 CNT  1    CNT  C    CA     0.000000   12.01070000        0
    2661 CNT  1    CNT  C    CA     0.000000   12.01070000        0
    2662 CNT  1    CNT  C    CA     0.000000   12.01070000        0
    2663 CNT  1    CNT  C    CA     0.000000   12.01070000        0
    2664 CNT  1    CNT  C    CA     0.000000   12.01070000        0
    2665 CNT  1    CNT  C    CA     0.000000   12.01070000        0
    2666 CNT  1    CNT  C    CA     0.000000   12.01070000        0
    2667 CNT  1    CNT  C    CA     0.000000   12.01070000        0
    2668 CNT  1    CNT  C    CA     0.000000   12.01070000        0
    2669 CNT  1    CNT  C    CA     0.000000   12.01070000        0
    2670 CNT  1    CNT  C    CA     0.000000   12.01070000        0
    2671 CNT  1    CNT  C    CA     0.000000   12.01070000        0
    2672 CNT  1    CNT  C    CA     0.000000   12.01070000        0
    2673 CNT  1    CNT  C    CA     0.000000   12.01070000        0
    2674 CNT  1    CNT  C    CA     0.000000   12.01070000        0
    2675 CNT  1    CNT  C    CA     0.000000   12.01070000        0
    2676 CNT  1    CNT  C    CA     0.000000   12.01070000        0
    2677 CNT  1    CNT  O    OX     0.000000   15.99940000        0
    2678 CNT  1    CNT  O    OX     0.000000   15.99940000        0
    2679 CNT  1    CNT  C    CA     0.000000   12.01070000        0
    2680 CNT  1    CNT  C    CA     0.000000   12.01070000        0
    2681 CNT  1    CNT  C    CA     0.000000   12.01070000        0
    2682 CNT  1    CNT  C    CA     0.000000   12.01070000        0
    2683 CNT  1    CNT  C    CA     0.000000   12.01070000        0
    2684 CNT  1    CNT  C    CA     0.000000   12.01070000        0
    2685 CNT  1    CNT  C    CA     0.000000   12.01070000        0
    2686 CNT  1    CNT  C    CA     0.000000   12.01070000        0
    2687 CNT  1    CNT  C    CA     0.000000   12.01070000        0
    2688 CNT  1    CNT  C    CA     0.000000   12.01070000        0
    2689 CNT  1    CNT  C    CA     0.000000   12.01070000        0
    2690 CNT  1    CNT  C    CA     0.000000   12.01070000        0
    2691 CNT  1    CNT  C    CA     0.000000   12.01070000        0
    2692 CNT  1    CNT  C    CA     0.000000   12.01070000        0
    2693 CNT  1    CNT  C    CA     0.000000   12.01070000        0
    2694 CNT  1    CNT  C    CA     0.000000   12.01070000        0
    2695 CNT  1    CNT  C    CA     0.000000   12.01070000        0
    2696 CNT  1    CNT  C    CA     0.000000   12.01070000        0
    2697 CNT  1    CNT  C    CA     0.000000   12.01070000        0
    2698 CNT  1    CNT  C    CA     0.000000   12.01070000        0
    2699 CNT  1    CNT  C    CA     0.000000   12.01070000        0
    2700 CNT  1    CNT  C    CA     0.000000   12.01070000        0
    2701 CNT  1    CNT  C    CA     0.000000   12.01070000        0
    2702 CNT  1    CNT  C    CA     0.000000   12.01070000        0
    2703 CNT  1    CNT  C    CA     0.000000   12.01070000        0
    2704 CNT  1    CNT  O    OX     0.000000   15.99940000        0
    2705 CNT  1    CNT  C    CA     0.000000   12.01070000        0
    2706 CNT  1    CNT  C    CA     0.000000   12.01070000        0
    2707 CNT  1    CNT  O    OX     0.000000   15.99940000        0
    2708 CNT  1    CNT  C    CA     0.000000   12.01070000        0
    2709 CNT  1    CNT  C    CA     0.000000   12.01070000        0
    2710 CNT  1    CNT  C    CA     0.000000   12.01070000        0
    2711 CNT  1    CNT  C    CA     0.000000   12.01070000        0
    2712 CNT  1    CNT  C    CA     0.000000   12.01070000        0
    2713 CNT  1    CNT  C    CA     0.000000   12.01070000        0
    2714 CNT  1    CNT  C    CA     0.000000   12.01070000        0
    2715 CNT  1    CNT  C    CA     0.000000   12.01070000        0
    2716 CNT  1    CNT  C    CA     0.000000   12.01070000        0
    2717 CNT  1    CNT  C    CA     0.000000   12.01070000        0
    2718 CNT  1    CNT  C    CA     0.000000   12.01070000        0
    2719 CNT  1    CNT  C    CA     0.000000   12.01070000        0
    2720 CNT  1    CNT  C    CA     0.000000   12.01070000        0
    2721 CNT  1    CNT  C    CA     0.000000   12.01070000        0
    2722 CNT  1    CNT  C    CA     0.000000   12.01070000        0
    2723 CNT  1    CNT  C    CA     0.000000   12.01070000        0
    2724 CNT  1    CNT  C    CA     0.000000   12.01070000        0
    2725 CNT  1    CNT  C    CA     0.000000   12.01070000        0
    2726 CNT  1    CNT  C    CA     0.000000   12.01070000        0
    2727 CNT  1    CNT  C    CA     0.000000   12.01070000        0
    2728 CNT  1    CNT  C    CA     0.000000   12.01070000        0
    2729 CNT  1    CNT  C    CA     0.000000   12.01070000        0
    2730 CNT  1    CNT  C    CA     0.000000   12.01070000        0
    2731 CNT  1    CNT  C    CA     0.000000   12.01070000        0
    2732 CNT  1    CNT  C    CA     0.000000   12.01070000        0
    2733 CNT  1    CNT  C    CA     0.000000   12.01070000        0
    2734 CNT  1    CNT  C    CA     0.000000   12.01070000        0
    2735 CNT  1    CNT  C    CA     0.000000   12.01070000        0
    2736 CNT  1    CNT  O    OX     0.000000   15.99940000        0
    2737 CNT  1    CNT  C    CA     0.000000   12.01070000        0
    2738 CNT  1    CNT  C    CA     0.000000   12.01070000        0
    2739 CNT  1    CNT  O    OX     0.000000   15.99940000        0
    2740 CNT  1    CNT  C    CA     0.000000   12.01070000        0
    2741 CNT  1    CNT  C    CA     0.000000   12.01070000        0
    2742 CNT  1    CNT  C    CA     0.000000   12.01070000        0
    2743 CNT  1    CNT  C    CA     0.000000   12.01070000        0
    2744 CNT  1    CNT  C    CA     0.000000   12.01070000        0
    2745 CNT  1    CNT  C    CA     0.000000   12.01070000        0
    2746 CNT  1    CNT  C    CA     0.000000   12.01070000        0
    2747 CNT  1    CNT  C    CA     0.000000   12.01070000        0
    2748 CNT  1    CNT  C    CA     0.000000   12.01070000        0
    2749 CNT  1    CNT  C    CA     0.000000   12.01070000        0
    2750 CNT  1    CNT  C    CA     0.000000   12.01070000        0
    2751 CNT  1    CNT  C    CA     0.000000   12.01070000        0
    2752 CNT  1    CNT  C    CA     0.000000   12.01070000        0
    2753 CNT  1    CNT  C    CA     0.000000   12.01070000        0
    2754 CNT  1    CNT  C    CA     0.000000   12.01070000        0
    2755 CNT  1    CNT  C    CA     0.000000   12.01070000        0
    2756 CNT  1    CNT  C    CA     0.000000   12.01070000        0
    2757 CNT  1    CNT  C    CA     0.000000   12.01070000        0
    2758 CNT  1    CNT  C    CA     0.000000   12.01070000        0
    2759 CNT  1    CNT  C    CA     0.000000   12.01070000        0
    2760 CNT  1    CNT  C    CA     0.000000   12.01070000        0
    2761 CNT  1    CNT  C    CA     0.000000   12.01070000        0
    2762 CNT  1    CNT  C    CA     0.000000   12.01070000        0
    2763 CNT  1    CNT  C    CA     0.000000   12.01070000        0
    2764 CNT  1    CNT  C    CA     0.000000   12.01070000        0
    2765 CNT  1    CNT  C    CA     0.000000   12.01070000        0
    2766 CNT  1    CNT  O    OX     0.000000   15.99940000        0
    2767 CNT  1    CNT  O    OX     0.000000   15.99940000        0
    2768 CNT  1    CNT  C    CA     0.000000   12.01070000        0
    2769 CNT  1    CNT  C    CA     0.000000   12.01070000        0
    2770 CNT  1    CNT  C    CA     0.000000   12.01070000        0
    2771 CNT  1    CNT  C    CA     0.000000   12.01070000        0
    2772 CNT  1    CNT  C    CA     0.000000   12.01070000        0
    2773 CNT  1    CNT  C    CA     0.000000   12.01070000        0
    2774 CNT  1    CNT  C    CA     0.000000   12.01070000        0
    2775 CNT  1    CNT  C    CA     0.000000   12.01070000        0
    2776 CNT  1    CNT  C    CA     0.000000   12.01070000        0
    2777 CNT  1    CNT  C    CA     0.000000   12.01070000        0
    2778 CNT  1    CNT  C    CA     0.000000   12.01070000        0
    2779 CNT  1    CNT  C    CA     0.000000   12.01070000        0
    2780 CNT  1    CNT  C    CA     0.000000   12.01070000        0
    2781 CNT  1    CNT  C    CA     0.000000   12.01070000        0
    2782 CNT  1    CNT  C    CA     0.000000   12.01070000        0
    2783 CNT  1    CNT  C    CA     0.000000   12.01070000        0
    2784 CNT  1    CNT  C    CA     0.000000   12.01070000        0
    2785 CNT  1    CNT  C    CA     0.000000   12.01070000        0
    2786 CNT  1    CNT  C    CA     0.000000   12.01070000        0
    2787 CNT  1    CNT  C    CA     0.000000   12.01070000        0
    2788 CNT  1    CNT  C    CA     0.000000   12.01070000        0
    2789 CNT  1    CNT  C    CA     0.000000   12.01070000        0
    2790 CNT  1    CNT  C    CA     0.000000   12.01070000        0
    2791 CNT  1    CNT  C    CA     0.000000   12.01070000        0
    2792 CNT  1    CNT  C    CA     0.000000   12.01070000        0
    2793 CNT  1    CNT  C    CA     0.000000   12.01070000        0
    2794 CNT  1    CNT  C    CA     0.000000   12.01070000        0
    2795 CNT  1    CNT  C    CA     0.000000   12.01070000        0
    2796 CNT  1    CNT  C    CA     0.000000   12.01070000        0
    2797 CNT  1    CNT  C    CA     0.000000   12.01070000        0
    2798 CNT  1    CNT  C    CA     0.000000   12.01070000        0
    2799 CNT  1    CNT  C    CA     0.000000   12.01070000        0
    2800 CNT  1    CNT  C    CA     0.000000   12.01070000        0
    2801 CNT  1    CNT  C    CA     0.000000   12.01070000        0
    2802 CNT  1    CNT  C    CA     0.000000   12.01070000        0
    2803 CNT  1    CNT  C    CA     0.000000   12.01070000        0
    2804 CNT  1    CNT  C    CA     0.000000   12.01070000        0
    2805 CNT  1    CNT  C    CA     0.000000   12.01070000        0
    2806 CNT  1    CNT  C    CA     0.000000   12.01070000        0
    2807 CNT  1    CNT  C    CA     0.000000   12.01070000        0
    2808 CNT  1    CNT  C    CA     0.000000   12.01070000        0
    2809 CNT  1    CNT  C    CA     0.000000   12.01070000        0
    2810 CNT  1    CNT  C    CA     0.000000   12.01070000        0
    2811 CNT  1    CNT  C    CA     0.000000   12.01070000        0
    2812 CNT  1    CNT  C    CA     0.000000   12.01070000        0
    2813 CNT  1    CNT  C    CA     0.000000   12.01070000        0
    2814 CNT  1    CNT  C    CA     0.000000   12.01070000        0
    2815 CNT  1    CNT  C    CA     0.000000   12.01070000        0
    2816 CNT  1    CNT  C    CA     0.000000   12.01070000        0
    2817 CNT  1    CNT  C    CA     0.000000   12.01070000        0
    2818 CNT  1    CNT  C    CA     0.000000   12.01070000        0
    2819 CNT  1    CNT  C    CA     0.000000   12.01070000        0
    2820 CNT  1    CNT  C    CA     0.000000   12.01070000        0
    2821 CNT  1    CNT  C    CA     0.000000   12.01070000        0
    2822 CNT  1    CNT  C    CA     0.000000   12.01070000        0
    2823 CNT  1    CNT  C    CA     0.000000   12.01070000        0
    2824 CNT  1    CNT  C    CA     0.000000   12.01070000        0
    2825 CNT  1    CNT  C    CA     0.000000   12.01070000        0
    2826 CNT  1    CNT  C    CA     0.000000   12.01070000        0
    2827 CNT  1    CNT  C    CA     0.000000   12.01070000        0
    2828 CNT  1    CNT  C    CA     0.000000   12.01070000        0
    2829 CNT  1    CNT  C    CA     0.000000   12.01070000        0
    2830 CNT  1    CNT  C    CA     0.000000   12.01070000        0
    2831 CNT  1    CNT  C    CA     0.000000   12.01070000        0
    2832 CNT  1    CNT  C    CA     0.000000   12.01070000        0
    2833 CNT  1    CNT  C    CA     0.000000   12.01070000        0
    2834 CNT  1    CNT  C    CA     0.000000   12.01070000        0
    2835 CNT  1    CNT  C    CA     0.000000   12.01070000        0
    2836 CNT  1    CNT  C    CA     0.000000   12.01070000        0
    2837 CNT  1    CNT  C    CA     0.000000   12.01070000        0
    2838 CNT  1    CNT  C    CA     0.000000   12.01070000        0
    2839 CNT  1    CNT  C    CA     0.000000   12.01070000        0
    2840 CNT  1    CNT  C    CA     0.000000   12.01070000        0
    2841 CNT  1    CNT  C    CA     0.000000   12.01070000        0
    2842 CNT  1    CNT  C    CA     0.000000   12.01070000        0
    2843 CNT  1    CNT  C    CA     0.000000   12.01070000        0
    2844 CNT  1    CNT  C    CA     0.000000   12.01070000        0
    2845 CNT  1    CNT  C    CA     0.000000   12.01070000        0
    2846 CNT  1    CNT  C    CA     0.000000   12.01070000        0
    2847 CNT  1    CNT  C    CA     0.000000   12.01070000        0
    2848 CNT  1    CNT  C    CA     0.000000   12.01070000        0
    2849 CNT  1    CNT  C    CA     0.000000   12.01070000        0
    2850 CNT  1    CNT  C    CA     0.000000   12.01070000        0
    2851 CNT  1    CNT  C    CA     0.000000   12.01070000        0
    2852 CNT  1    CNT  C    CA     0.000000   12.01070000        0
    2853 CNT  1    CNT  C    CA     0.000000   12.01070000        0
    2854 CNT  1    CNT  C    CA     0.000000   12.01070000        0
    2855 CNT  1    CNT  C    CA     0.000000   12.01070000        0
    2856 CNT  1    CNT  C    CA     0.000000   12.01070000        0
    2857 CNT  1    CNT  C    CA     0.000000   12.01070000        0
    2858 CNT  1    CNT  C    CA     0.000000   12.01070000        0
    2859 CNT  1    CNT  C    CA     0.000000   12.01070000        0
    2860 CNT  1    CNT  C    CA     0.000000   12.01070000        0
    2861 CNT  1    CNT  C    CA     0.000000   12.01070000        0
    2862 CNT  1    CNT  C    CA     0.000000   12.01070000        0
    2863 CNT  1    CNT  C    CA     0.000000   12.01070000        0
    2864 CNT  1    CNT  C    CA     0.000000   12.01070000        0
    2865 CNT  1    CNT  C    CA     0.000000   12.01070000        0
    2866 CNT  1    CNT  C    CA     0.000000   12.01070000        0
    2867 CNT  1    CNT  C    CA     0.000000   12.01070000        0
    2868 CNT  1    CNT  C    CA     0.000000   12.01070000        0
    2869 CNT  1    CNT  C    CA     0.000000   12.01070000        0
    2870 CNT  1    CNT  C    CA     0.000000   12.01070000        0
    2871 CNT  1    CNT  C    CA     0.000000   12.01070000        0
    2872 CNT  1    CNT  C    CA     0.000000   12.01070000        0
    2873 CNT  1    CNT  C    CA     0.000000   12.01070000        0
    2874 CNT  1    CNT  C    CA     0.000000   12.01070000        0
    2875 CNT  1    CNT  C    CA     0.000000   12.01070000        0
    2876 CNT  1    CNT  C    CA     0.000000   12.01070000        0
    2877 CNT  1    CNT  C    CA     0.000000   12.01070000        0
    2878 CNT  1    CNT  C    CA     0.000000   12.01070000        0
    2879 CNT  1    CNT  C    CA     0.000000   12.01070000        0
    2880 CNT  1    CNT  C    CA     0.000000   12.01070000        0
    2881 CNT  1    CNT  C    CA     0.000000   12.01070000        0
    2882 CNT  1    CNT  C    CA     0.000000   12.01070000        0
    2883 CNT  1    CNT  C    CA     0.000000   12.01070000        0
    2884 CNT  1    CNT  C    CA     0.000000   12.01070000        0
    2885 CNT  1    CNT  C    CA     0.000000   12.01070000        0
    2886 CNT  1    CNT  C    CA     0.000000   12.01070000        0
    2887 CNT  1    CNT  C    CA     0.000000   12.01070000        0
    2888 CNT  1    CNT  C    CA     0.000000   12.01070000        0
    2889 CNT  1    CNT  C    CA     0.000000   12.01070000        0
    2890 CNT  1    CNT  C    CA     0.000000   12.01070000        0
    2891 CNT  1    CNT  C    CA     0.000000   12.01070000        0
    2892 CNT  1    CNT  C    CA     0.000000   12.01070000        0
    2893 CNT  1    CNT  C    CA     0.000000   12.01070000        0
    2894 CNT  1    CNT  C    CA     0.000000   12.01070000        0
    2895 CNT  1    CNT  C    CA     0.000000   12.01070000        0
    2896 CNT  1    CNT  C    CA     0.000000   12.01070000        0
    2897 CNT  1    CNT  C    CA     0.000000   12.01070000        0
    2898 CNT  1    CNT  C    CA     0.000000   12.01070000        0
    2899 CNT  1    CNT  C    CA     0.000000   12.01070000        0
    2900 CNT  1    CNT  C    CA     0.000000   12.01070000        0
    2901 CNT  1    CNT  C    CA     0.000000   12.01070000        0
    2902 CNT  1    CNT  C    CA     0.000000   12.01070000        0
    2903 CNT  1    CNT  C    CA     0.000000   12.01070000        0
    2904 CNT  1    CNT  C    CA     0.000000   12.01070000        0
    2905 CNT  1    CNT  C    CA     0.000000   12.01070000        0
    2906 CNT  1    CNT  C    CA     0.000000   12.01070000        0
    2907 CNT  1    CNT  C    CA     0.000000   12.01070000        0
    2908 CNT  1    CNT  C    CA     0.000000   12.01070000        0
    2909 CNT  1    CNT  C    CA     0.000000   12.01070000        0
    2910 CNT  1    CNT  C    CA     0.000000   12.01070000        0
    2911 CNT  1    CNT  C    CA     0.000000   12.01070000        0
    2912 CNT  1    CNT  C    CA     0.000000   12.01070000        0
    2913 CNT  1    CNT  C    CA     0.000000   12.01070000        0
    2914 CNT  1    CNT  C    CA     0.000000   12.01070000        0
    2915 CNT  1    CNT  C    CA     0.000000   12.01070000        0
    2916 CNT  1    CNT  C    CA     0.000000   12.01070000        0
    2917 CNT  1    CNT  C    CA     0.000000   12.01070000        0
    2918 CNT  1    CNT  C    CA     0.000000   12.01070000        0
    2919 CNT  1    CNT  C    CA     0.000000   12.01070000        0
    2920 CNT  1    CNT  C    CA     0.000000   12.01070000        0
    2921 CNT  1    CNT  C    CA     0.000000   12.01070000        0
    2922 CNT  1    CNT  C    CA     0.000000   12.01070000        0
    2923 CNT  1    CNT  C    CA     0.000000   12.01070000        0
    2924 CNT  1    CNT  C    CA     0.000000   12.01070000        0
    2925 CNT  1    CNT  C    CA     0.000000   12.01070000        0
    2926 CNT  1    CNT  C    CA     0.000000   12.01070000        0
    2927 CNT  1    CNT  C    CA     0.000000   12.01070000        0
    2928 CNT  1    CNT  C    CA     0.000000   12.01070000        0
    2929 CNT  1    CNT  C    CA     0.000000   12.01070000        0
    2930 CNT  1    CNT  C    CA     0.000000   12.01070000        0
    2931 CNT  1    CNT  C    CA     0.000000   12.01070000        0
    2932 CNT  1    CNT  C    CA     0.000000   12.01070000        0
    2933 CNT  1    CNT  C    CA     0.000000   12.01070000        0
    2934 CNT  1    CNT  C    CA     0.000000   12.01070000        0
    2935 CNT  1    CNT  C    CA     0.000000   12.01070000        0
    2936 CNT  1    CNT  C    CA     0.000000   12.01070000        0
    2937 CNT  1    CNT  C    CA     0.000000   12.01070000        0
    2938 CNT  1    CNT  C    CA     0.000000   12.01070000        0
    2939 CNT  1    CNT  C    CA     0.000000   12.01070000        0
    2940 CNT  1    CNT  C    CA     0.000000   12.01070000        0
    2941 CNT  1    CNT  C    CA     0.000000   12.01070000        0
    2942 CNT  1    CNT  C    CA     0.000000   12.01070000        0
    2943 CNT  1    CNT  C    CA     0.000000   12.01070000        0
    2944 CNT  1    CNT  C    CA     0.000000   12.01070000        0
    2945 CNT  1    CNT  C    CA     0.000000   12.01070000        0
    2946 CNT  1    CNT  C    CA     0.000000   12.01070000        0
    2947 CNT  1    CNT  C    CA     0.000000   12.01070000        0
    2948 CNT  1    CNT  C    CA     0.000000   12.01070000        0
    2949 CNT  1    CNT  C    CA     0.000000   12.01070000        0
    2950 CNT  1    CNT  C    CA     0.000000   12.01070000        0
    2951 CNT  1    CNT  C    CA     0.000000   12.01070000        0
    2952 CNT  1    CNT  C    CA     0.000000   12.01070000        0
    2953 CNT  1    CNT  C    CA     0.000000   12.01070000        0
    2954 CNT  1    CNT  C    CA     0.000000   12.01070000        0
    2955 CNT  1    CNT  C    CA     0.000000   12.01070000        0
    2956 CNT  1    CNT  C    CA     0.000000   12.01070000        0
    2957 CNT  1    CNT  C    CA     0.000000   12.01070000        0
    2958 CNT  1    CNT  C    CA     0.000000   12.01070000        0
    2959 CNT  1    CNT  C    CA     0.000000   12.01070000        0
    2960 CNT  1    CNT  C    CA     0.000000   12.01070000        0
    2961 CNT  1    CNT  C    CA     0.000000   12.01070000        0
    2962 CNT  1    CNT  C    CA     0.000000   12.01070000        0
    2963 CNT  1    CNT  C    CA     0.000000   12.01070000        0
    2964 CNT  1    CNT  C    CA     0.000000   12.01070000        0

    4364 !NBOND: bonds
       1      92       1       2       2       3       3       4
       3      94       4      97       4       5       5       6
       6       7       7       8       7      98       8       9
       8     101       9      10      10      11      11      12
      11     102      12     105      12      13      13      14
      14      15      15      16      15     106      16      17
      16     109      17      18      18      19      19      20
      19     110      20      21      20     113      21      22
      22      23      23     114      23      24      24      25
      24     117      25      26      26      27      27     118
      27      28      28      29      28     121      29      30
      30      31      31     122      31      32      32     125
      32      33      33      34      34      35      35      36
      35     126      36      37      36     129      37      38
      38      39      39     130      39      40      40      41
      40     133      41      42      42      43      43      44
      43     134      44     137      44      45      45      46
      46      47      47      48      47     138      48      49
      48     141      49      50      50      51      51     142
      51      52      52      53      52     145      53      54
      54      55      55      56      55     146      56     149
      56      57      57      58      58      59      59     150
      59      60      60      61      60     153      61      62
      62      63      63      64      63     154      64      65
      64     157      65      66      66      67      67      68
      67     158      68      69      68     161      69      70
      70      71      71      72      71     162      72      73
      72     165      73      74      74      75      75      76
      75     166      76      77      76     169      77      78
      78      79      79      80      79     170      80      81
      80     173      81      82      82      83      83      84
      83     174      84      85      84     177      85      86
      86      87      87      88      87     178      88      89
      88     181      89      90      90      91      91      92
      91     182      92      93      93     184      93      94
      94      95      95      96      95     186      96     189
      96      97      97      98      98      99      99     100
      99     190     100     101     100     193     101     102
     102     103     103     104     103     194     104     105
     104     197     105     106     106     107     107     108
     107     198     108     109     108     201     109     110
     110     111     111     112     111     202     112     113
     112     205     113     114     114     115     115     206
     115     116     116     117     116     209     117     118
     118     119     119     210     119     120     120     121
     120     213     121     122     122     123     123     214
     123     124     124     215     124     125     125     126
     126     127     127     216     127     128     128     129
     128     219     129     130     130     131     131     220
     131     132     132     133     132     223     133     134
     134     135     135     136     135     224     136     227
     136     137     137     138     138     139     139     228
     139     140     140     141     140     231     141     142
     142     143     143     232     143     144     144     145
     144     235     145     146     146     147     147     148
     147     236     148     239     148     149     149     150
     150     151     151     240     151     152     152     153
     152     243     153     154     154     155     155     156
     155     244     156     157     156     247     157     158
     158     159     159     160     159     248     160     161
     160     251     161     162     162     163     163     164
     163     252     164     165     164     255     165     166
     166     167     167     168     167     256     168     169
     168     259     169     170     170     171     171     172
     171     260     172     173     172     263     173     174
     174     175     175     176     175     264     176     177
     176     267     177     178     178     179     179     180
     179     268     180     181     180     271     181     182
     182     183     183     184     183     272     184     185
     185     186     185     274     186     187     187     188
     188     276     188     189     189     190     190     191
     191     277     191     192     192     193     192     280
     193     194     194     195     195     196     195     281
     196     284     196     197     197     198     198     199
     199     200     199     285     200     288     200     201
     201     202     202     203     203     204     203     289
     204     292     204     205     205     206     206     207
     207     293     207     208     208     296     208     209
     209     210     210     211     211     297     211     212
     212     300     212     213     213     214     215     216
     216     217     217     301     217     218     218     219
     218     304     219     220     220     221     221     222
     221     305     222     308     222     223     223     224
     224     225     225     226     225     309     226     312
     226     227     227     228     228     229     229     313
     229     230     230     231     230     316     231     232
     232     233     233     317     233     234     234     235
     234     320     235     236     236     237     237     238
     237     321     238     324     238     239     239     240
     240     241     241     325     241     242     242     243
     243     244     244     245     245     246     246     247
     246     328     247     248     248     249     249     250
     249     329     250     251     250     332     251     252
     252     253     253     254     253     333     254     336
     254     255     255     256     256     257     257     258
     257     337     258     340     258     259     259     260
     260     261     261     262     261     341     262     344
     262     263     263     264     264     265     265     345
     265     266     266     348     266     267     267     268
     268     269     269     349     269     270     270     271
     270     352     271     272     272     273     273     353
     273     274     275     276     275     357     276     277
     277     278     278     358     278     279     279     361
     279     280     280     281     281     282     282     283
     282     362     283     365     283     284     284     285
     285     286     286     366     286     287     287     288
     287     369     288     289     289     290     290     291
     290     370     291     292     291     373     292     293
     293     294     294     374     294     295     295     296
     295     377     296     297     297     298     298     378
     298     299     299     300     299     381     301     302
     302     386     302     303     303     389     303     304
     304     305     305     306     306     390     306     307
     307     308     307     393     308     309     309     310
     310     311     310     394     311     312     311     397
     312     313     313     314     314     398     314     315
     315     401     315     316     316     317     317     318
     318     402     318     319     319     405     319     320
     320     321     321     322     322     323     322     406
     323     324     323     409     324     325     325     326
     326     410     327     415     327     328     328     329
     329     330     330     331     330     416     331     419
     331     332     332     333     333     334     334     335
     334     420     335     423     335     336     336     337
     337     338     338     339     338     424     339     427
     339     340     340     341     341     342     342     343
     342     428     343     344     343     431     344     345
     345     346     346     432     346     347     347     348
     347     435     348     349     349     350     350     436
     350     351     351     439     351     352     352     353
     353     354     354     440     355     356     355     444
     356     447     356     357     357     358     358     359
     359     360     359     448     360     361     360     451
     361     362     362     363     363     364     363     452
     364     365     364     455     365     366     366     367
     367     368     367     456     368     459     368     369
     369     370     370     371     371     372     371     460
     372     463     372     373     373     374     374     375
     375     464     375     376     376     467     376     377
     377     378     378     379     379     468     379     380
     380     471     380     381     381     382     382     383
     383     472     383     384     384     385     384     475
     385     386     386     387     387     476     387     388
     388     389     388     479     389     390     390     391
     391     392     391     480     392     483     392     393
     393     394     394     395     395     396     395     484
     396     487     396     397     397     398     398     399
     399     488     399     400     400     401     400     491
     401     402     402     403     403     404     403     492
     404     495     404     405     405     406     406     407
     407     408     407     496     408     499     408     409
     409     410     410     411     411     500     411     412
     412     503     413     414     413     504     414     415
     414     507     415     416     416     417     417     418
     417     508     418     419     418     511     419     420
     420     421     421     422     421     512     422     423
     422     515     423     424     424     425     425     426
     425     516     426     427     426     519     427     428
     428     429     429     430     429     520     430     523
     430     431     431     432     432     433     433     434
     433     524     434     527     434     435     435     436
     436     437     437     438     437     528     438     439
     438     531     439     440     440     441     441     442
     441     532     442     443     443     534     443     444
     444     445     445     446     445     536     446     539
     446     447     447     448     448     449     449     450
     449     540     450     451     450     543     451     452
     452     453     453     454     453     544     454     455
     454     547     455     456     456     457     457     548
     457     458     458     459     458     551     459     460
     460     461     461     462     461     552     462     463
     462     555     463     464     464     465     465     556
     465     466     466     467     466     559     467     468
     468     469     469     470     469     560     470     471
     470     563     471     472     472     473     473     564
     473     474     474     567     474     475     475     476
     476     477     477     568     477     478     478     479
     478     571     479     480     480     481     481     572
     481     482     482     483     482     575     483     484
     484     485     485     486     485     576     486     579
     486     487     487     488     488     489     489     580
     489     490     490     491     490     583     491     492
     492     493     493     584     493     494     494     495
     494     587     495     496     496     497     497     498
     497     588     498     591     498     499     499     500
     500     501     501     502     501     592     502     503
     502     595     503     504     504     505     505     506
     505     596     506     507     506     599     507     508
     508     509     509     510     509     600     510     511
     510     603     511     512     512     513     513     514
     513     604     514     515     514     607     515     516
     516     517     517     518     517     608     518     519
     518     611     519     520     520     521     521     522
     521     612     522     523     522     615     523     524
     524     525     525     526     525     616     526     527
     526     619     527     528     528     529     529     530
     529     620     530     531     530     623     531     532
     532     533     533     534     533     624     534     535
     535     626     535     536     536     537     537     538
     537     628     538     631     538     539     539     540
     540     541     541     542     541     632     542     543
     542     635     543     544     544     545     545     546
     545     636     546     547     546     639     547     548
     548     549     549     550     549     640     550     551
     550     643     551     552     552     553     553     554
     553     644     554     555     554     647     555     556
     556     557     557     648     557     558     558     559
     558     651     559     560     560     561     561     652
     561     562     562     563     562     655     563     564
     564     565     565     656     565     566     566     659
     566     567     567     568     568     569     569     660
     569     570     570     571     570     663     571     572
     572     573     573     664     573     574     574     575
     574     667     575     576     576     577     577     578
     577     668     578     671     578     579     579     580
     580     581     581     672     581     582     582     583
     582     675     583     584     584     585     585     586
     585     676     586     587     586     679     587     588
     588     589     589     590     589     680     590     683
     590     591     591     592     592     593     593     684
     593     594     594     595     594     687     595     596
     596     597     597     598     597     688     598     599
     598     691     599     600     600     601     601     602
     601     692     602     603     602     695     603     604
     604     605     605     606     605     696     606     607
     606     699     607     608     608     609     609     610
     609     700     610     611     610     703     611     612
     612     613     613     614     613     704     614     615
     614     707     615     616     616     617     617     618
     617     708     618     619     618     711     619     620
     620     621     621     622     621     712     622     623
     622     715     623     624     624     625     625     626
     625     716     626     627     627     628     627     718
     628     629     629     720     629     630     630     723
     630     631     631     632     632     633     633     724
     633     634     634     727     634     635     635     636
     636     637     637     638     637     728     638     639
     638     731     639     640     640     641     641     642
     641     732     642     643     642     735     643     644
     644     645     645     646     645     736     646     739
     646     647     647     648     648     649     649     740
     649     650     650     743     650     651     651     652
     652     653     653     744     653     654     654     655
     654     747     655     656     656     657     657     748
     657     658     658     659     658     751     659     660
     660     661     661     752     661     662     662     663
     662     755     663     664     664     665     665     756
     665     666     666     759     666     667     667     668
     668     669     669     670     669     760     670     671
     670     763     671     672     672     673     673     764
     673     674     674     675     674     767     675     676
     676     677     677     768     677     678     678     771
     678     679     679     680     680     681     681     682
     681     772     682     775     682     683     683     684
     684     685     685     776     685     686     686     687
     686     779     687     688     688     689     689     780
     689     690     690     691     690     783     691     692
     692     693     693     694     693     784     694     695
     694     787     695     696     696     697     697     698
     697     788     698     699     698     791     699     700
     700     701     701     702     701     792     702     703
     702     795     703     704     704     705     705     706
     705     796     706     799     706     707     707     708
     708     709     709     800     709     710     710     803
     710     711     711     712     712     713     713     804
     713     714     714     715     714     807     715     716
     716     717     717     808     717     718     718     719
     719     720     719     810     720     721     721     812
     721     722     722     723     722     815     723     724
     724     725     725     816     725     726     726     727
     726     819     727     728     728     729     729     730
     729     820     730     823     730     731     731     732
     732     733     733     734     733     824     734     827
     734     735     735     736     736     737     737     828
     737     738     738     739     738     831     739     740
     740     741     741     742     741     832     742     835
     742     743     743     744     744     745     745     836
     745     746     746     839     746     747     747     748
     748     749     749     840     749     750     750     843
     750     751     751     752     752     753     753     844
     753     754     754     847     754     755     755     756
     756     757     757     848     757     758     758     759
     758     851     759     760     760     761     761     762
     761     852     762     855     762     763     763     764
     764     765     765     856     765     766     766     859
     766     767     767     768     768     769     769     860
     769     770     770     771     770     863     771     772
     772     773     773     774     773     864     774     867
     774     775     775     776     776     777     777     868
     777     778     778     871     778     779     779     780
     780     781     781     872     781     782     782     875
     782     783     783     784     784     785     785     786
     785     876     786     879     786     787     787     788
     788     789     789     790     789     880     790     883
     790     791     791     792     792     793     793     794
     793     884     794     887     794     795     795     796
     796     797     797     798     797     888     798     891
     798     799     799     800     800     801     801     892
     801     802     802     803     802     895     803     804
     804     805     805     896     805     806     806     899
     806     807     807     808     808     809     809     900
     809     810     810     811     811     812     811     902
     812     813     813     814     813     904     814     907
     814     815     815     816     816     817     817     818
     817     908     818     911     818     819     819     820
     820     821     821     822     821     912     822     823
     822     915     823     824     824     825     825     826
     825     916     826     827     826     919     827     828
     828     829     829     830     829     920     830     923
     830     831     831     832     832     833     833     924
     833     834     834     835     834     927     835     836
     836     837     837     928     837     838     838     839
     838     931     839     840     840     841     841     932
     841     842     842     843     842     935     843     844
     844     845     845     846     845     936     846     939
     846     847     847     848     848     849     849     940
     849     850     850     943     850     851     851     852
     852     853     853     854     853     944     854     855
     854     947     855     856     856     857     857     948
     857     858     858     859     858     951     859     860
     860     861     861     952     861     862     862     955
     862     863     863     864     864     865     865     866
     865     956     866     867     866     959     867     868
     868     869     869     960     869     870     870     871
     870     963     871     872     872     873     873     874
     873     964     874     875     874     967     875     876
     876     877     877     878     877     968     878     879
     878     971     879     880     880     881     881     882
     881     972     882     883     882     975     883     884
     884     885     885     886     885     976     886     887
     886     979     887     888     888     889     889     890
     889     980     890     983     890     891     891     892
     892     893     893     894     893     984     894     987
     894     895     895     896     896     897     897     898
     897     988     898     991     898     899     899     900
     900     901     901     902     901     992     902     903
     903     994     903     904     904     905     905     906
     905     996     906     999     906     907     907     908
     908     909     909     910     909    1000     910     911
     910    1003     911     912     912     913     913     914
     913    1004     914     915     914    1007     915     916
     916     917     917     918     917    1008     918     919
     918    1009     919     920     920     921     921     922
     921    1010     922     923     922    1013     923     924
     924     925     925    1014     925     926     926     927
     926    1017     927     928     928     929     929    1018
     929     930     930     931     930    1021     931     932
     932     933     933    1022     933     934     934    1025
     934     935     935     936     936     937     937    1026
     937     938     938     939     938    1029     939     940
     940     941     941    1030     941     942     942     943
     942    1033     943     944     944     945     945     946
     945    1034     946    1037     946     947     947     948
     948     949     949    1038     949     950     950     951
     950    1039     951     952     952     953     953    1040
     953     954     954     955     954    1043     955     956
     956     957     957     958     957    1044     958     959
     958    1047     959     960     960     961     961    1048
     961     962     962     963     962    1051     963     964
     964     965     965     966     965    1052     966     967
     966    1055     967     968     968     969     969     970
     969    1056     970     971     970    1059     971     972
     972     973     973     974     973    1060     974     975
     974    1063     975     976     976     977     977     978
     977    1064     978     979     979     980     980     981
     981     982     982     983     982    1067     983     984
     984     985     985     986     985    1068     986     987
     986    1071     987     988     988     989     989     990
     989    1072     990     991     990    1075     991     992
     992     993     993     994     993    1076     994     995
     995    1078     995     996     996     997     997     998
     997    1080     998    1083     998     999     999    1000
    1000    1001    1001    1002    1001    1084    1002    1003
    1002    1087    1003    1004    1004    1005    1005    1006
    1005    1088    1006    1091    1006    1007    1007    1008
    1009    1010    1010    1011    1011    1012    1011    1092
    1012    1013    1012    1095    1013    1014    1014    1015
    1015    1096    1015    1016    1016    1017    1016    1099
    1017    1018    1018    1019    1019    1100    1019    1020
    1020    1021    1020    1103    1021    1022    1022    1023
    1023    1104    1023    1024    1024    1107    1024    1025
    1025    1026    1026    1027    1027    1028    1027    1108
    1028    1029    1028    1111    1029    1030    1030    1031
    1031    1112    1031    1032    1032    1033    1032    1115
    1033    1034    1034    1035    1035    1036    1035    1116
    1036    1119    1036    1037    1037    1038    1039    1040
    1040    1041    1041    1120    1041    1042    1042    1043
    1042    1123    1043    1044    1044    1045    1045    1046
    1045    1124    1046    1127    1046    1047    1047    1048
    1048    1049    1049    1128    1049    1050    1050    1051
    1050    1131    1051    1052    1052    1053    1053    1054
    1053    1132    1054    1055    1054    1135    1055    1056
    1056    1057    1057    1058    1057    1136    1058    1059
    1058    1139    1059    1060    1060    1061    1061    1062
    1061    1140    1062    1063    1062    1143    1063    1064
    1064    1065    1065    1144    1066    1067    1066    1149
    1067    1068    1068    1069    1069    1070    1069    1150
    1070    1071    1070    1153    1071    1072    1072    1073
    1073    1074    1073    1154    1074    1075    1074    1157
    1075    1076    1076    1077    1077    1078    1077    1158
    1078    1079    1079    1080    1079    1160    1080    1081
    1081    1162    1081    1082    1082    1083    1082    1165
    1083    1084    1084    1085    1085    1166    1085    1086
    1086    1169    1086    1087    1087    1088    1088    1089
    1089    1090    1089    1170    1090    1091    1090    1173
    1092    1093    1093    1094    1093    1178    1094    1095
    1094    1181    1095    1096    1096    1097    1097    1182
    1097    1098    1098    1099    1098    1185    1099    1100
    1100    1101    1101    1186    1101    1102    1102    1103
    1102    1189    1103    1104    1104    1105    1105    1190
    1105    1106    1106    1193    1106    1107    1107    1108
    1108    1109    1109    1194    1109    1110    1110    1197
    1110    1111    1111    1112    1112    1113    1113    1198
    1113    1114    1114    1201    1114    1115    1115    1116
    1116    1117    1117    1118    1117    1202    1118    1119
    1118    1205    1120    1121    1121    1210    1121    1122
    1122    1213    1122    1123    1123    1124    1124    1125
    1125    1126    1125    1214    1126    1127    1126    1217
    1127    1128    1128    1129    1129    1218    1129    1130
    1130    1131    1130    1221    1131    1132    1132    1133
    1133    1134    1133    1222    1134    1225    1134    1135
    1135    1136    1136    1137    1137    1138    1137    1226
    1138    1229    1138    1139    1139    1140    1140    1141
    1141    1230    1141    1142    1142    1143    1142    1233
    1143    1144    1144    1145    1145    1146    1145    1234
    1146    1237    1147    1148    1147    1238    1148    1149
    1148    1241    1149    1150    1150    1151    1151    1242
    1151    1152    1152    1245    1152    1153    1153    1154
    1154    1155    1155    1246    1155    1156    1156    1249
    1156    1157    1157    1158    1158    1159    1159    1250
    1159    1160    1160    1161    1161    1162    1161    1252
    1162    1163    1163    1254    1163    1164    1164    1257
    1164    1165    1165    1166    1166    1167    1167    1258
    1167    1168    1168    1169    1168    1261    1169    1170
    1170    1171    1171    1172    1171    1262    1172    1265
    1172    1173    1173    1174    1174    1175    1175    1176
    1175    1266    1176    1269    1176    1177    1177    1178
    1178    1179    1179    1180    1179    1270    1180    1273
    1180    1181    1181    1182    1182    1183    1183    1274
    1183    1184    1184    1277    1184    1185    1185    1186
    1186    1187    1187    1278    1187    1188    1188    1281
    1188    1189    1189    1190    1190    1191    1191    1282
    1191    1192    1192    1193    1192    1285    1193    1194
    1194    1195    1195    1286    1195    1196    1196    1197
    1196    1289    1197    1198    1198    1199    1199    1200
    1199    1290    1200    1293    1200    1201    1201    1202
    1202    1203    1203    1204    1203    1294    1204    1297
    1204    1205    1205    1206    1206    1207    1207    1298
    1207    1208    1208    1209    1208    1301    1209    1210
    1210    1211    1211    1302    1211    1212    1212    1213
    1212    1305    1213    1214    1214    1215    1215    1216
    1215    1306    1216    1309    1216    1217    1217    1218
    1218    1219    1219    1310    1219    1220    1220    1313
    1220    1221    1221    1222    1222    1223    1223    1314
    1223    1224    1224    1225    1224    1317    1225    1226
    1226    1227    1227    1228    1227    1318    1228    1229
    1228    1321    1229    1230    1230    1231    1231    1232
    1231    1322    1232    1325    1232    1233    1233    1234
    1234    1235    1235    1236    1235    1326    1236    1329
    1236    1237    1237    1238    1238    1239    1239    1240
    1239    1330    1240    1333    1240    1241    1241    1242
    1242    1243    1243    1334    1243    1244    1244    1337
    1244    1245    1245    1246    1246    1247    1247    1338
    1247    1248    1248    1249    1248    1341    1249    1250
    1250    1251    1251    1342    1251    1252    1252    1253
    1253    1254    1253    1344    1254    1255    1255    1256
    1255    1346    1256    1257    1256    1349    1257    1258
    1258    1259    1259    1260    1259    1350    1260    1353
    1260    1261    1261    1262    1262    1263    1263    1264
    1263    1354    1264    1357    1264    1265    1265    1266
    1266    1267    1267    1358    1267    1268    1268    1269
    1268    1361    1269    1270    1270    1271    1271    1272
    1271    1362    1272    1273    1272    1365    1273    1274
    1274    1275    1275    1366    1275    1276    1276    1277
    1276    1369    1277    1278    1278    1279    1279    1370
    1279    1280    1280    1281    1280    1373    1281    1282
    1282    1283    1283    1374    1283    1284    1284    1285
    1284    1377    1285    1286    1286    1287    1287    1378
    1287    1288    1288    1381    1288    1289    1289    1290
    1290    1291    1291    1382    1291    1292    1292    1293
    1292    1385    1293    1294    1294    1295    1295    1296
    1295    1386    1296    1297    1296    1389    1297    1298
    1298    1299    1299    1390    1299    1300    1300    1393
    1300    1301    1301    1302    1302    1303    1303    1394
    1303    1304    1304    1397    1304    1305    1305    1306
    1306    1307    1307    1308    1307    1398    1308    1309
    1308    1401    1309    1310    1310    1311    1311    1402
    1311    1312    1312    1313    1312    1405    1313    1314
    1314    1315    1315    1316    1315    1406    1316    1409
    1316    1317    1317    1318    1318    1319    1319    1320
    1319    1410    1320    1413    1320    1321    1321    1322
    1322    1323    1323    1324    1323    1414    1324    1417
    1324    1325    1325    1326    1326    1327    1327    1328
    1327    1418    1328    1421    1328    1329    1329    1330
    1330    1331    1331    1332    1331    1422    1332    1333
    1332    1425    1333    1334    1334    1335    1335    1336
    1335    1426    1336    1337    1336    1429    1337    1338
    1338    1339    1339    1340    1339    1430    1340    1433
    1340    1341    1341    1342    1342    1343    1343    1344
    1343    1434    1344    1345    1345    1436    1345    1346
    1346    1347    1347    1348    1347    1438    1348    1441
    1348    1349    1349    1350    1350    1351    1351    1352
    1351    1442    1352    1353    1352    1445    1353    1354
    1354    1355    1355    1356    1355    1446    1356    1357
    1356    1449    1357    1358    1358    1359    1359    1360
    1359    1450    1360    1361    1360    1453    1361    1362
    1362    1363    1363    1364    1363    1454    1364    1365
    1364    1457    1365    1366    1366    1367    1367    1458
    1367    1368    1368    1369    1368    1461    1369    1370
    1370    1371    1371    1462    1371    1372    1372    1373
    1372    1465    1373    1374    1374    1375    1375    1466
    1375    1376    1376    1469    1376    1377    1377    1378
    1378    1379    1379    1470    1379    1380    1380    1381
    1380    1473    1381    1382    1382    1383    1383    1384
    1383    1474    1384    1385    1384    1477    1385    1386
    1386    1387    1387    1388    1387    1478    1388    1481
    1388    1389    1389    1390    1390    1391    1391    1482
    1391    1392    1392    1393    1392    1485    1393    1394
    1394    1395    1395    1396    1395    1486    1396    1397
    1396    1489    1397    1398    1398    1399    1399    1400
    1399    1490    1400    1493    1400    1401    1401    1402
    1402    1403    1403    1494    1403    1404    1404    1405
    1404    1497    1405    1406    1406    1407    1407    1408
    1407    1498    1408    1409    1408    1501    1409    1410
    1410    1411    1411    1412    1411    1502    1412    1413
    1412    1505    1413    1414    1414    1415    1415    1416
    1415    1506    1416    1417    1416    1509    1417    1418
    1418    1419    1419    1420    1419    1510    1420    1421
    1420    1513    1421    1422    1422    1423    1423    1424
    1423    1514    1424    1425    1424    1517    1425    1426
    1426    1427    1427    1428    1427    1518    1428    1429
    1428    1521    1429    1430    1430    1431    1431    1432
    1431    1522    1432    1433    1432    1525    1433    1434
    1434    1435    1435    1436    1435    1526    1436    1437
    1437    1528    1437    1438    1438    1439    1439    1440
    1439    1530    1440    1533    1440    1441    1441    1442
    1442    1443    1443    1444    1443    1534    1444    1445
    1444    1537    1445    1446    1446    1447    1447    1448
    1447    1538    1448    1449    1448    1541    1449    1450
    1450    1451    1451    1542    1451    1452    1452    1453
    1452    1545    1453    1454    1454    1455    1455    1456
    1455    1546    1456    1457    1456    1549    1457    1458
    1458    1459    1459    1550    1459    1460    1460    1461
    1460    1553    1461    1462    1462    1463    1463    1464
    1463    1554    1464    1465    1464    1557    1465    1466
    1466    1467    1467    1558    1467    1468    1468    1561
    1468    1469    1469    1470    1470    1471    1471    1562
    1471    1472    1472    1473    1472    1565    1473    1474
    1474    1475    1475    1566    1475    1476    1476    1477
    1476    1569    1477    1478    1478    1479    1479    1480
    1479    1570    1480    1573    1480    1481    1481    1482
    1482    1483    1483    1574    1483    1484    1484    1485
    1484    1577    1485    1486    1486    1487    1487    1578
    1487    1488    1488    1489    1488    1581    1489    1490
    1490    1491    1491    1492    1491    1582    1492    1585
    1492    1493    1493    1494    1494    1495    1495    1496
    1495    1586    1496    1497    1496    1589    1497    1498
    1498    1499    1499    1500    1499    1590    1500    1501
    1500    1593    1501    1502    1502    1503    1503    1504
    1503    1594    1504    1505    1504    1597    1505    1506
    1506    1507    1507    1508    1507    1598    1508    1509
    1508    1601    1509    1510    1510    1511    1511    1512
    1511    1602    1512    1513    1512    1605    1513    1514
    1514    1515    1515    1516    1515    1606    1516    1517
    1516    1609    1517    1518    1518    1519    1519    1520
    1519    1610    1520    1521    1520    1613    1521    1522
    1522    1523    1523    1524    1523    1614    1524    1525
    1524    1617    1525    1526    1526    1527    1527    1528
    1527    1618    1528    1529    1529    1530    1529    1620
    1530    1531    1531    1622    1531    1532    1532    1533
    1532    1625    1533    1534    1534    1535    1535    1626
    1535    1536    1536    1629    1536    1537    1537    1538
    1538    1539    1539    1540    1539    1630    1540    1633
    1540    1541    1541    1542    1542    1543    1543    1544
    1543    1634    1544    1637    1544    1545    1545    1546
    1546    1547    1547    1638    1547    1548    1548    1549
    1548    1641    1549    1550    1550    1551    1551    1642
    1551    1552    1552    1553    1552    1645    1553    1554
    1554    1555    1555    1556    1555    1646    1556    1649
    1556    1557    1557    1558    1558    1559    1559    1650
    1559    1560    1560    1653    1560    1561    1561    1562
    1562    1563    1563    1654    1563    1564    1564    1657
    1564    1565    1565    1566    1566    1567    1567    1658
    1567    1568    1568    1569    1568    1661    1569    1570
    1570    1571    1571    1572    1571    1662    1572    1665
    1572    1573    1573    1574    1574    1575    1575    1666
    1575    1576    1576    1669    1576    1577    1577    1578
    1578    1579    1579    1670    1579    1580    1580    1581
    1580    1673    1581    1582    1582    1583    1583    1584
    1583    1674    1584    1585    1584    1677    1585    1586
    1586    1587    1587    1588    1587    1678    1588    1681
    1588    1589    1589    1590    1590    1591    1591    1682
    1591    1592    1592    1685    1592    1593    1593    1594
    1594    1595    1595    1596    1595    1686    1596    1689
    1596    1597    1597    1598    1598    1599    1599    1600
    1599    1690    1600    1693    1600    1601    1601    1602
    1602    1603    1603    1604    1603    1694    1604    1697
    1604    1605    1605    1606    1606    1607    1607    1608
    1607    1698    1608    1701    1608    1609    1609    1610
    1610    1611    1611    1702    1611    1612    1612    1613
    1612    1705    1613    1614    1614    1615    1615    1706
    1615    1616    1616    1709    1616    1617    1617    1618
    1618    1619    1619    1710    1619    1620    1620    1621
    1621    1622    1621    1712    1622    1623    1623    1714
    1623    1624    1624    1717    1624    1625    1625    1626
    1626    1627    1627    1718    1627    1628    1628    1721
    1628    1629    1629    1630    1630    1631    1631    1632
    1631    1722    1632    1633    1632    1725    1633    1634
    1634    1635    1635    1636    1635    1726    1636    1637
    1636    1729    1637    1638    1638    1639    1639    1640
    1639    1730    1640    1733    1640    1641    1641    1642
    1642    1643    1643    1734    1643    1644    1644    1737
    1644    1645    1645    1646    1646    1647    1647    1738
    1647    1648    1648    1649    1648    1741    1649    1650
    1650    1651    1651    1742    1651    1652    1652    1653
    1652    1745    1653    1654    1654    1655    1655    1746
    1655    1656    1656    1657    1656    1749    1657    1658
    1658    1659    1659    1750    1659    1660    1660    1753
    1660    1661    1661    1662    1662    1663    1663    1664
    1663    1754    1664    1665    1664    1757    1665    1666
    1666    1667    1667    1758    1667    1668    1668    1669
    1668    1761    1669    1670    1670    1671    1671    1762
    1671    1672    1672    1765    1672    1673    1673    1674
    1674    1675    1675    1676    1675    1766    1676    1769
    1676    1677    1677    1678    1678    1679    1679    1770
    1679    1680    1680    1681    1680    1773    1681    1682
    1682    1683    1683    1774    1683    1684    1684    1685
    1684    1777    1685    1686    1686    1687    1687    1688
    1687    1778    1688    1689    1688    1781    1689    1690
    1690    1691    1691    1692    1691    1782    1692    1693
    1692    1785    1693    1694    1694    1695    1695    1696
    1695    1786    1696    1697    1696    1789    1697    1698
    1698    1699    1699    1700    1699    1790    1700    1793
    1700    1701    1701    1702    1702    1703    1703    1794
    1703    1704    1704    1797    1704    1705    1705    1706
    1706    1707    1707    1798    1707    1708    1708    1709
    1708    1801    1709    1710    1710    1711    1711    1802
    1711    1712    1712    1713    1713    1714    1713    1804
    1714    1715    1715    1716    1716    1717    1716    1806
    1717    1718    1718    1719    1719    1720    1719    1807
    1720    1721    1720    1810    1721    1722    1722    1723
    1723    1724    1723    1811    1724    1814    1724    1725
    1725    1726    1726    1727    1727    1728    1727    1815
    1728    1818    1728    1729    1729    1730    1730    1731
    1731    1819    1731    1732    1732    1733    1732    1822
    1733    1734    1734    1735    1735    1736    1735    1823
    1736    1826    1736    1737    1737    1738    1738    1739
    1739    1827    1739    1740    1740    1830    1740    1741
    1741    1742    1742    1743    1743    1831    1743    1744
    1744    1832    1744    1745    1745    1746    1746    1747
    1747    1833    1747    1748    1748    1836    1748    1749
    1749    1750    1750    1751    1751    1837    1751    1752
    1752    1753    1752    1840    1753    1754    1754    1755
    1755    1756    1755    1841    1756    1757    1756    1844
    1757    1758    1758    1759    1759    1845    1759    1760
    1760    1848    1760    1761    1761    1762    1762    1763
    1763    1849    1763    1764    1764    1765    1764    1852
    1765    1766    1766    1767    1767    1768    1767    1853
    1768    1769    1768    1856    1769    1770    1770    1771
    1771    1857    1771    1772    1772    1773    1773    1774
    1774    1775    1775    1776    1776    1860    1776    1777
    1777    1778    1778    1779    1779    1780    1779    1861
    1780    1864    1780    1781    1781    1782    1782    1783
    1783    1784    1783    1865    1784    1868    1784    1785
    1785    1786    1786    1787    1787    1788    1787    1869
    1788    1872    1788    1789    1789    1790    1790    1791
    1791    1792    1791    1873    1792    1876    1792    1793
    1793    1794    1794    1795    1795    1796    1795    1877
    1796    1797    1796    1880    1797    1798    1798    1799
    1799    1800    1799    1881    1800    1884    1800    1801
    1801    1802    1802    1803    1803    1804    1803    1885
    1805    1889    1805    1806    1806    1807    1807    1808
    1808    1809    1808    1890    1809    1810    1809    1893
    1810    1811    1811    1812    1812    1813    1812    1894
    1813    1814    1813    1897    1814    1815    1815    1816
    1816    1817    1816    1898    1817    1818    1817    1901
    1818    1819    1819    1820    1820    1821    1820    1902
    1821    1822    1821    1905    1822    1823    1823    1824
    1824    1906    1824    1825    1825    1826    1825    1909
    1826    1827    1827    1828    1828    1910    1828    1829
    1829    1830    1829    1913    1830    1831    1832    1833
    1833    1834    1834    1835    1834    1914    1835    1836
    1835    1917    1836    1837    1837    1838    1838    1918
    1838    1839    1839    1840    1839    1921    1840    1841
    1841    1842    1842    1843    1842    1922    1843    1925
    1843    1844    1844    1845    1845    1846    1846    1926
    1846    1847    1847    1848    1847    1929    1848    1849
    1849    1850    1850    1930    1850    1851    1851    1852
    1851    1933    1852    1853    1853    1854    1854    1855
    1854    1934    1855    1937    1855    1856    1856    1857
    1857    1858    1858    1938    1859    1860    1859    1943
    1860    1861    1861    1862    1862    1863    1862    1944
    1863    1864    1863    1947    1864    1865    1865    1866
    1866    1867    1866    1948    1867    1868    1867    1951
    1868    1869    1869    1870    1870    1871    1870    1952
    1871    1872    1871    1955    1872    1873    1873    1874
    1874    1875    1874    1956    1875    1876    1875    1959
    1876    1877    1877    1878    1878    1879    1878    1960
    1879    1880    1879    1963    1880    1881    1881    1882
    1882    1883    1882    1964    1883    1884    1883    1967
    1884    1885    1885    1886    1886    1968    1887    1888
    1887    1972    1888    1975    1888    1889    1889    1890
    1890    1891    1891    1892    1891    1976    1892    1893
    1892    1979    1893    1894    1894    1895    1895    1896
    1895    1980    1896    1897    1896    1983    1897    1898
    1898    1899    1899    1900    1899    1984    1900    1901
    1900    1987    1901    1902    1902    1903    1903    1904
    1903    1988    1904    1905    1904    1991    1905    1906
    1906    1907    1907    1992    1907    1908    1908    1909
    1908    1995    1909    1910    1910    1911    1911    1996
    1911    1912    1912    1913    1912    1999    1914    1915
    1915    2004    1915    1916    1916    1917    1916    2007
    1917    1918    1918    1919    1919    2008    1919    1920
    1920    1921    1920    2011    1921    1922    1922    1923
    1923    1924    1923    2012    1924    2015    1924    1925
    1925    1926    1926    1927    1927    2016    1927    1928
    1928    1929    1928    2019    1929    1930    1930    1931
    1931    2020    1931    1932    1932    1933    1932    2023
    1933    1934    1934    1935    1935    1936    1935    2024
    1936    1937    1936    2027    1937    1938    1938    1939
    1939    2028    1939    1940    1940    2031    1941    1942
    1941    2032    1942    1943    1942    2035    1943    1944
    1944    1945    1945    1946    1945    2036    1946    1947
    1946    2039    1947    1948    1948    1949    1949    1950
    1949    2040    1950    1951    1950    2043    1951    1952
    1952    1953    1953    1954    1953    2044    1954    1955
    1954    2047    1955    1956    1956    1957    1957    1958
    1957    2048    1958    1959    1958    2051    1959    1960
    1960    1961    1961    1962    1961    2052    1962    1963
    1962    2055    1963    1964    1964    1965    1965    1966
    1965    2056    1966    1967    1966    2059    1967    1968
    1968    1969    1969    1970    1969    2060    1970    1971
    1971    1972    1971    2062    1972    1973    1973    2064
    1973    1974    1974    2067    1974    1975    1975    1976
    1976    1977    1977    2068    1977    1978    1978    1979
    1978    2071    1979    1980    1980    1981    1981    1982
    1981    2072    1982    2075    1982    1983    1983    1984
    1984    1985    1985    1986    1985    2076    1986    2079
    1986    1987    1987    1988    1988    1989    1989    1990
    1989    2080    1990    2083    1990    1991    1991    1992
    1992    1993    1993    2084    1993    1994    1994    2087
    1994    1995    1995    1996    1996    1997    1997    2088
    1997    1998    1998    2091    1998    1999    1999    2000
    2000    2001    2001    2092    2001    2002    2002    2095
    2002    2003    2003    2004    2004    2005    2005    2096
    2005    2006    2006    2007    2006    2099    2007    2008
    2008    2009    2009    2100    2009    2010    2010    2011
    2010    2103    2011    2012    2012    2013    2013    2014
    2013    2104    2014    2107    2014    2015    2015    2016
    2016    2017    2017    2108    2017    2018    2018    2019
    2018    2111    2019    2020    2020    2021    2021    2112
    2021    2022    2022    2023    2022    2115    2023    2024
    2024    2025    2025    2026    2025    2116    2026    2119
    2026    2027    2027    2028    2028    2029    2029    2120
    2029    2030    2030    2123    2030    2031    2031    2032
    2032    2033    2033    2124    2033    2034    2034    2127
    2034    2035    2035    2036    2036    2037    2037    2038
    2037    2128    2038    2131    2038    2039    2039    2040
    2040    2041    2041    2042    2041    2132    2042    2135
    2042    2043    2043    2044    2044    2045    2045    2046
    2045    2136    2046    2139    2046    2047    2047    2048
    2048    2049    2049    2050    2049    2140    2050    2143
    2050    2051    2051    2052    2052    2053    2053    2144
    2053    2054    2054    2055    2054    2147    2055    2056
    2056    2057    2057    2148    2057    2058    2058    2059
    2058    2151    2059    2060    2060    2061    2061    2152
    2061    2062    2062    2063    2063    2064    2063    2154
    2064    2065    2065    2156    2065    2066    2066    2067
    2066    2159    2067    2068    2068    2069    2069    2160
    2069    2070    2070    2163    2070    2071    2071    2072
    2072    2073    2073    2074    2073    2164    2074    2075
    2074    2167    2075    2076    2076    2077    2077    2078
    2077    2168    2078    2079    2078    2171    2079    2080
    2080    2081    2081    2082    2081    2172    2082    2083
    2082    2175    2083    2084    2084    2085    2085    2176
    2085    2086    2086    2087    2086    2179    2087    2088
    2088    2089    2089    2180    2089    2090    2090    2091
    2090    2183    2091    2092    2092    2093    2093    2184
    2093    2094    2094    2187    2094    2095    2095    2096
    2096    2097    2097    2188    2097    2098    2098    2191
    2098    2099    2099    2100    2100    2101    2101    2192
    2101    2102    2102    2195    2102    2103    2103    2104
    2104    2105    2105    2106    2105    2196    2106    2107
    2106    2199    2107    2108    2108    2109    2109    2110
    2109    2200    2110    2203    2110    2111    2111    2112
    2112    2113    2113    2204    2113    2114    2114    2207
    2114    2115    2115    2116    2116    2117    2117    2118
    2117    2208    2118    2119    2118    2211    2119    2120
    2120    2121    2121    2212    2121    2122    2122    2123
    2122    2215    2123    2124    2124    2125    2125    2126
    2125    2216    2126    2219    2126    2127    2127    2128
    2128    2129    2129    2130    2129    2220    2130    2223
    2130    2131    2131    2132    2132    2133    2133    2224
    2133    2134    2134    2135    2134    2227    2135    2136
    2136    2137    2137    2138    2137    2228    2138    2139
    2138    2231    2139    2140    2140    2141    2141    2142
    2141    2232    2142    2143    2142    2235    2143    2144
    2144    2145    2145    2236    2145    2146    2146    2239
    2146    2147    2147    2148    2148    2149    2149    2240
    2149    2150    2150    2243    2150    2151    2151    2152
    2152    2153    2153    2244    2153    2154    2154    2155
    2155    2156    2155    2246    2156    2157    2157    2158
    2157    2248    2158    2251    2158    2159    2159    2160
    2160    2161    2161    2162    2161    2252    2162    2163
    2162    2255    2163    2164    2164    2165    2165    2166
    2165    2256    2166    2259    2166    2167    2167    2168
    2168    2169    2169    2170    2169    2260    2170    2263
    2170    2171    2171    2172    2172    2173    2173    2174
    2173    2264    2174    2267    2174    2175    2175    2176
    2176    2177    2177    2268    2177    2178    2178    2271
    2178    2179    2179    2180    2180    2181    2181    2272
    2181    2182    2182    2275    2182    2183    2183    2184
    2184    2185    2185    2276    2185    2186    2186    2187
    2186    2279    2187    2188    2188    2189    2189    2280
    2189    2190    2190    2191    2190    2283    2191    2192
    2192    2193    2193    2194    2193    2284    2194    2287
    2194    2195    2195    2196    2196    2197    2197    2198
    2197    2288    2198    2291    2198    2199    2199    2200
    2200    2201    2201    2292    2201    2202    2202    2203
    2202    2295    2203    2204    2204    2205    2205    2296
    2205    2206    2206    2207    2206    2299    2207    2208
    2208    2209    2209    2210    2209    2300    2210    2303
    2210    2211    2211    2212    2212    2213    2213    2304
    2213    2214    2214    2307    2214    2215    2215    2216
    2216    2217    2217    2218    2217    2308    2218    2219
    2218    2311    2219    2220    2220    2221    2221    2222
    2221    2312    2222    2223    2222    2315    2223    2224
    2224    2225    2225    2226    2225    2316    2226    2319
    2226    2227    2227    2228    2228    2229    2229    2230
    2229    2320    2230    2323    2230    2231    2231    2232
    2232    2233    2233    2234    2233    2324    2234    2327
    2234    2235    2235    2236    2236    2237    2237    2238
    2237    2328    2238    2331    2238    2239    2239    2240
    2240    2241    2241    2242    2241    2332    2242    2243
    2242    2335    2243    2244    2244    2245    2245    2246
    2245    2336    2246    2247    2247    2338    2247    2248
    2248    2249    2249    2250    2249    2340    2250    2343
    2250    2251    2251    2252    2252    2253    2253    2254
    2253    2344    2254    2255    2254    2347    2255    2256
    2256    2257    2257    2258    2257    2348    2258    2259
    2258    2351    2259    2260    2260    2261    2261    2352
    2261    2262    2262    2263    2262    2355    2263    2264
    2264    2265    2265    2266    2265    2356    2266    2267
    2266    2359    2267    2268    2268    2269    2269    2360
    2269    2270    2270    2271    2270    2363    2271    2272
    2272    2273    2273    2364    2273    2274    2274    2275
    2274    2367    2275    2276    2276    2277    2277    2368
    2277    2278    2278    2279    2278    2371    2279    2280
    2280    2281    2281    2372    2281    2282    2282    2283
    2282    2375    2283    2284    2284    2285    2285    2376
    2285    2286    2286    2287    2286    2379    2287    2288
    2288    2289    2289    2290    2289    2380    2290    2383
    2290    2291    2291    2292    2292    2293    2293    2384
    2293    2294    2294    2295    2294    2387    2295    2296
    2296    2297    2297    2388    2297    2298    2298    2299
    2298    2391    2299    2300    2300    2301    2301    2302
    2301    2392    2302    2395    2302    2303    2303    2304
    2304    2305    2305    2396    2305    2306    2306    2307
    2306    2399    2307    2308    2308    2309    2309    2310
    2309    2400    2310    2311    2310    2403    2311    2312
    2312    2313    2313    2314    2313    2404    2314    2315
    2314    2407    2315    2316    2316    2317    2317    2318
    2317    2408    2318    2319    2318    2411    2319    2320
    2320    2321    2321    2322    2321    2412    2322    2323
    2322    2415    2323    2324    2324    2325    2325    2326
    2325    2416    2326    2327    2326    2419    2327    2328
    2328    2329    2329    2330    2329    2420    2330    2331
    2330    2423    2331    2332    2332    2333    2333    2334
    2333    2424    2334    2335    2334    2427    2335    2336
    2336    2337    2337    2338    2337    2428    2338    2339
    2339    2430    2339    2340    2340    2341    2341    2342
    2341    2432    2342    2435    2342    2343    2343    2344
    2344    2345    2345    2346    2345    2436    2346    2347
    2346    2439    2347    2348    2348    2349    2349    2350
    2349    2440    2350    2351    2350    2443    2351    2352
    2352    2353    2353    2354    2353    2444    2354    2355
    2354    2447    2355    2356    2356    2357    2357    2358
    2357    2448    2358    2359    2358    2451    2359    2360
    2360    2361    2361    2452    2361    2362    2362    2363
    2362    2455    2363    2364    2364    2365    2365    2456
    2365    2366    2366    2367    2366    2459    2367    2368
    2368    2369    2369    2460    2369    2370    2370    2463
    2370    2371    2371    2372    2372    2373    2373    2464
    2373    2374    2374    2375    2374    2467    2375    2376
    2376    2377    2377    2378    2377    2468    2378    2379
    2378    2471    2379    2380    2380    2381    2381    2382
    2381    2472    2382    2475    2382    2383    2383    2384
    2384    2385    2385    2476    2385    2386    2386    2387
    2386    2479    2387    2388    2388    2389    2389    2390
    2389    2480    2390    2391    2390    2483    2391    2392
    2392    2393    2393    2394    2393    2484    2394    2487
    2394    2395    2395    2396    2396    2397    2397    2488
    2397    2398    2398    2399    2398    2491    2399    2400
    2400    2401    2401    2402    2401    2492    2402    2403
    2402    2495    2403    2404    2404    2405    2405    2406
    2405    2496    2406    2407    2406    2499    2407    2408
    2408    2409    2409    2410    2409    2500    2410    2411
    2410    2503    2411    2412    2412    2413    2413    2414
    2413    2504    2414    2415    2414    2507    2415    2416
    2416    2417    2417    2418    2417    2508    2418    2419
    2418    2511    2419    2420    2420    2421    2421    2422
    2421    2512    2422    2423    2422    2515    2423    2424
    2424    2425    2425    2426    2425    2516    2426    2427
    2426    2519    2427    2428    2428    2429    2429    2430
    2429    2520    2430    2431    2431    2432    2431    2522
    2432    2433    2433    2524    2433    2434    2434    2527
    2434    2435    2435    2436    2436    2437    2437    2528
    2437    2438    2438    2439    2438    2531    2439    2440
    2440    2441    2441    2442    2441    2532    2442    2443
    2442    2535    2443    2444    2444    2445    2445    2446
    2445    2536    2446    2537    2446    2447    2447    2448
    2448    2449    2449    2450    2449    2538    2450    2541
    2450    2451    2451    2452    2452    2453    2453    2542
    2453    2454    2454    2545    2454    2455    2455    2456
    2456    2457    2457    2546    2457    2458    2458    2459
    2458    2549    2459    2460    2460    2461    2461    2550
    2461    2462    2462    2463    2462    2553    2463    2464
    2464    2465    2465    2554    2465    2466    2466    2467
    2466    2557    2467    2468    2468    2469    2469    2558
    2469    2470    2470    2561    2470    2471    2471    2472
    2472    2473    2473    2474    2473    2562    2474    2565
    2474    2475    2475    2476    2476    2477    2477    2566
    2477    2478    2478    2479    2478    2567    2479    2480
    2480    2481    2481    2482    2481    2568    2482    2571
    2482    2483    2483    2484    2484    2485    2485    2486
    2485    2572    2486    2575    2486    2487    2487    2488
    2488    2489    2489    2576    2489    2490    2490    2491
    2490    2579    2491    2492    2492    2493    2493    2580
    2493    2494    2494    2495    2494    2583    2495    2496
    2496    2497    2497    2498    2497    2584    2498    2499
    2498    2587    2499    2500    2500    2501    2501    2502
    2501    2588    2502    2503    2502    2591    2503    2504
    2504    2505    2505    2506    2505    2592    2506    2507
    2506    2595    2507    2508    2508    2509    2509    2510
    2509    2596    2510    2599    2510    2511    2511    2512
    2512    2513    2513    2600    2513    2514    2514    2603
    2514    2515    2515    2516    2516    2517    2517    2604
    2517    2518    2518    2519    2518    2607    2519    2520
    2520    2521    2521    2608    2521    2522    2522    2523
    2523    2524    2523    2610    2524    2525    2525    2612
    2525    2526    2526    2527    2526    2615    2527    2528
    2528    2529    2529    2616    2529    2530    2530    2619
    2530    2531    2531    2532    2532    2533    2533    2534
    2533    2620    2534    2623    2534    2535    2535    2536
    2537    2538    2538    2539    2539    2624    2539    2540
    2540    2541    2540    2627    2541    2542    2542    2543
    2543    2628    2543    2544    2544    2545    2544    2631
    2545    2546    2546    2547    2547    2548    2547    2632
    2548    2635    2548    2549    2549    2550    2550    2551
    2551    2636    2551    2552    2552    2639    2552    2553
    2553    2554    2554    2555    2555    2640    2555    2556
    2556    2643    2556    2557    2557    2558    2558    2559
    2559    2644    2559    2560    2560    2561    2560    2647
    2561    2562    2562    2563    2563    2564    2563    2648
    2564    2651    2564    2565    2565    2566    2567    2568
    2568    2569    2569    2652    2569    2570    2570    2571
    2570    2655    2571    2572    2572    2573    2573    2574
    2573    2656    2574    2575    2574    2659    2575    2576
    2576    2577    2577    2578    2577    2660    2578    2663
    2578    2579    2579    2580    2580    2581    2581    2664
    2581    2582    2582    2667    2582    2583    2583    2584
    2584    2585    2585    2586    2585    2668    2586    2671
    2586    2587    2587    2588    2588    2589    2589    2590
    2589    2672    2590    2675    2590    2591    2591    2592
    2592    2593    2593    2594    2593    2676    2594    2595
    2595    2596    2596    2597    2597    2598    2598    2679
    2598    2599    2599    2600    2600    2601    2601    2680
    2601    2602    2602    2603    2602    2683    2603    2604
    2604    2605    2605    2684    2605    2606    2606    2687
    2606    2607    2607    2608    2608    2609    2609    2688
    2609    2610    2610    2611    2611    2612    2611    2690
    2612    2613    2613    2614    2613    2692    2614    2695
    2614    2615    2615    2616    2616    2617    2617    2618
    2617    2696    2618    2699    2618    2619    2619    2620
    2620    2621    2621    2622    2621    2700    2622    2623
    2622    2703    2624    2625    2625    2626    2625    2708
    2626    2711    2626    2627    2627    2628    2628    2629
    2629    2712    2629    2630    2630    2715    2630    2631
    2631    2632    2632    2633    2633    2716    2633    2634
    2634    2635    2634    2719    2635    2636    2636    2637
    2637    2720    2637    2638    2638    2639    2638    2723
    2639    2640    2640    2641    2641    2724    2641    2642
    2642    2643    2642    2727    2643    2644    2644    2645
    2645    2728    2645    2646    2646    2731    2646    2647
    2647    2648    2648    2649    2649    2650    2649    2732
    2650    2651    2650    2735    2652    2653    2653    2740
    2653    2654    2654    2743    2654    2655    2655    2656
    2656    2657    2657    2658    2657    2744    2658    2747
    2658    2659    2659    2660    2660    2661    2661    2748
    2661    2662    2662    2663    2662    2751    2663    2664
    2664    2665    2665    2666    2665    2752    2666    2667
    2666    2755    2667    2668    2668    2669    2669    2670
    2669    2756    2670    2671    2670    2759    2671    2672
    2672    2673    2673    2674    2673    2760    2674    2675
    2674    2763    2675    2676    2676    2677    2677    2764
    2678    2769    2678    2679    2679    2680    2680    2681
    2681    2682    2681    2770    2682    2773    2682    2683
    2683    2684    2684    2685    2685    2686    2685    2774
    2686    2687    2686    2777    2687    2688    2688    2689
    2689    2690    2689    2778    2690    2691    2691    2780
    2691    2692    2692    2693    2693    2694    2693    2782
    2694    2785    2694    2695    2695    2696    2696    2697
    2697    2698    2697    2786    2698    2699    2698    2789
    2699    2700    2700    2701    2701    2702    2701    2790
    2702    2703    2702    2793    2703    2704    2704    2705
    2705    2706    2705    2794    2706    2707    2706    2797
    2707    2708    2708    2709    2709    2798    2709    2710
    2710    2711    2710    2801    2711    2712    2712    2713
    2713    2714    2713    2802    2714    2715    2714    2805
    2715    2716    2716    2717    2717    2806    2717    2718
    2718    2719    2718    2809    2719    2720    2720    2721
    2721    2810    2721    2722    2722    2813    2722    2723
    2723    2724    2724    2725    2725    2814    2725    2726
    2726    2727    2726    2817    2727    2728    2728    2729
    2729    2818    2729    2730    2730    2731    2730    2821
    2731    2732    2732    2733    2733    2734    2733    2822
    2734    2735    2734    2825    2735    2736    2736    2737
    2737    2826    2737    2738    2738    2739    2738    2829
    2739    2740    2740    2741    2741    2830    2741    2742
    2742    2743    2742    2833    2743    2744    2744    2745
    2745    2746    2745    2834    2746    2747    2746    2837
    2747    2748    2748    2749    2749    2838    2749    2750
    2750    2751    2750    2841    2751    2752    2752    2753
    2753    2754    2753    2842    2754    2755    2754    2845
    2755    2756    2756    2757    2757    2758    2757    2846
    2758    2759    2758    2849    2759    2760    2760    2761
    2761    2762    2761    2850    2762    2763    2762    2853
    2763    2764    2764    2765    2765    2766    2765    2854
    2766    2857    2767    2768    2767    2858    2768    2769
    2768    2861    2769    2770    2770    2771    2771    2772
    2771    2862    2772    2773    2772    2865    2773    2774
    2774    2775    2775    2776    2775    2866    2776    2777
    2776    2869    2777    2778    2778    2779    2779    2780
    2779    2870    2780    2781    2781    2872    2781    2782
    2782    2783    2783    2784    2783    2874    2784    2877
    2784    2785    2785    2786    2786    2787    2787    2788
    2787    2878    2788    2789    2788    2881    2789    2790
    2790    2791    2791    2792    2791    2882    2792    2793
    2792    2885    2793    2794    2794    2795    2795    2796
    2795    2886    2796    2797    2796    2889    2797    2798
    2798    2799    2799    2800    2799    2890    2800    2801
    2800    2893    2801    2802    2802    2803    2803    2894
    2803    2804    2804    2805    2804    2897    2805    2806
    2806    2807    2807    2898    2807    2808    2808    2809
    2808    2901    2809    2810    2810    2811    2811    2902
    2811    2812    2812    2905    2812    2813    2813    2814
    2814    2815    2815    2816    2815    2906    2816    2817
    2816    2909    2817    2818    2818    2819    2819    2910
    2819    2820    2820    2821    2820    2913    2821    2822
    2822    2823    2823    2824    2823    2914    2824    2917
    2824    2825    2825    2826    2826    2827    2827    2918
    2827    2828    2828    2829    2828    2921    2829    2830
    2830    2831    2831    2922    2831    2832    2832    2833
    2832    2925    2833    2834    2834    2835    2835    2836
    2835    2926    2836    2929    2836    2837    2837    2838
    2838    2839    2839    2930    2839    2840    2840    2841
    2840    2933    2841    2842    2842    2843    2843    2844
    2843    2934    2844    2845    2844    2937    2845    2846
    2846    2847    2847    2848    2847    2938    2848    2849
    2848    2941    2849    2850    2850    2851    2851    2852
    2851    2942    2852    2853    2852    2945    2853    2854
    2854    2855    2855    2856    2855    2946    2856    2857
    2856    2949    2857    2858    2858    2859    2859    2860
    2859    2950    2860    2861    2860    2953    2861    2862
    2862    2863    2863    2864    2863    2954    2864    2865
    2864    2957    2865    2866    2866    2867    2867    2868
    2867    2958    2868    2869    2868    2961    2869    2870
    2870    2871    2871    2872    2871    2962    2872    2873
    2873    2874    2873    2964    2874    2875    2875    2876
    2876    2877    2877    2878    2878    2879    2879    2880
    2880    2881    2881    2882    2882    2883    2883    2884
    2884    2885    2885    2886    2886    2887    2887    2888
    2888    2889    2889    2890    2890    2891    2891    2892
    2892    2893    2893    2894    2894    2895    2895    2896
    2896    2897    2897    2898    2898    2899    2899    2900
    2900    2901    2901    2902    2902    2903    2903    2904
    2904    2905    2905    2906    2906    2907    2907    2908
    2908    2909    2909    2910    2910    2911    2911    2912
    2912    2913    2913    2914    2914    2915    2915    2916
    2916    2917    2917    2918    2918    2919    2919    2920
    2920    2921    2921    2922    2922    2923    2923    2924
    2924    2925    2925    2926    2926    2927    2927    2928
    2928    2929    2929    2930    2930    2931    2931    2932
    2932    2933    2933    2934    2934    2935    2935    2936
    2936    2937    2937    2938    2938    2939    2939    2940
    2940    2941    2941    2942    2942    2943    2943    2944
    2944    2945    2945    2946    2946    2947    2947    2948
    2948    2949    2949    2950    2950    2951    2951    2952
    2952    2953    2953    2954    2954    2955    2955    2956
    2956    2957    2957    2958    2958    2959    2959    2960
    2960    2961    2961    2962    2962    2963    2963    2964

       0 !NTHETA: angles

       0 !NPHI: dihedrals

       0 !NIMPHI: impropers

       0 !NDON: donors

       0 !NACC: acceptors

       0 !NNB

       0       0       0       0       0       0       0       0
       0       0       0       0       0       0       0       0
       0       0       0       0       0       0       0       0
       0       0       0       0       0       0       0       0
       0       0       0       0       0       0       0       0
       0       0       0       0       0       0       0       0
       0       0       0       0       0       0       0       0
       0       0       0       0       0       0       0       0
       0       0       0       0       0       0       0       0
       0       0       0       0       0       0       0       0
       0       0       0       0       0       0       0       0
       0       0       0       0       0       0       0       0
       0       0       0       0       0       0       0       0
       0       0       0       0       0       0       0       0
       0       0       0       0       0       0       0       0
       0       0       0       0       0       0       0       0
       0       0       0       0       0       0       0       0
       0       0       0       0       0       0       0       0
       0       0       0       0       0       0       0       0
       0       0       0       0       0       0       0       0
       0       0       0       0       0       0       0       0
       0       0       0       0       0       0       0       0
       0       0       0       0       0       0       0       0
       0       0       0       0       0       0       0       0
       0       0       0       0       0       0       0       0
       0       0       0       0       0       0       0       0
       0       0       0       0       0       0       0       0
       0       0       0       0       0       0       0       0
       0       0       0       0       0       0       0       0
       0       0       0       0       0       0       0       0
       0       0       0       0       0       0       0       0
       0       0       0       0       0       0       0       0
       0       0       0       0       0       0       0       0
       0       0       0       0       0       0       0       0
       0       0       0       0       0       0       0       0
       0       0       0       0       0       0       0       0
       0       0       0       0       0       0       0       0
       0       0       0       0       0       0       0       0
       0       0       0       0       0       0       0       0
       0       0       0       0       0       0       0       0
       0       0       0       0       0       0       0       0
       0       0       0       0       0       0       0       0
       0       0       0       0       0       0       0       0
       0       0       0       0       0       0       0       0
       0       0       0       0       0       0       0       0
       0       0       0       0       0       0       0       0
       0       0       0       0       0       0       0       0
       0       0       0       0       0       0       0       0
       0       0       0       0       0       0       0       0
       0       0       0       0       0       0       0       0
       0       0       0       0       0       0       0       0
       0       0       0       0       0       0       0       0
       0       0       0       0       0       0       0       0
       0       0       0       0       0       0       0       0
       0       0       0       0       0       0       0       0
       0       0       0       0       0       0       0       0
       0       0       0       0       0       0       0       0
       0       0       0       0       0       0       0       0
       0       0       0       0       0       0       0       0
       0       0       0       0       0       0       0       0
       0       0       0       0       0       0       0       0
       0       0       0       0       0       0       0       0
       0       0       0       0       0       0       0       0
       0       0       0       0       0       0       0       0
       0       0       0       0       0       0       0       0
       0       0       0       0       0       0       0       0
       0       0       0       0       0       0       0       0
       0       0       0       0       0       0       0       0
       0       0       0       0       0       0       0       0
       0       0       0       0       0       0       0       0
       0       0       0       0       0       0       0       0
       0       0       0       0       0       0       0       0
       0       0       0       0       0       0       0       0
       0       0       0       0       0       0       0       0
       0       0       0       0       0       0       0       0
       0       0       0       0       0       0       0       0
       0       0       0       0       0       0       0       0
       0       0       0       0       0       0       0       0
       0       0       0       0       0       0       0       0
       0       0       0       0       0       0       0       0
       0       0       0       0       0       0       0       0
       0       0       0       0       0       0       0       0
       0       0       0       0       0       0       0       0
       0       0       0       0       0       0       0       0
       0       0       0       0       0       0       0       0
       0       0       0       0       0       0       0       0
       0       0       0       0       0       0       0       0
       0       0       0       0       0       0       0       0
       0       0       0       0       0       0       0       0
       0       0       0       0       0       0       0       0
       0       0       0       0       0       0       0       0
       0       0       0       0       0       0       0       0
       0       0       0       0       0       0       0       0
       0       0       0       0       0       0       0       0
       0       0       0       0       0       0       0       0
       0       0       0       0       0       0       0       0
       0       0       0       0       0       0       0       0
       0       0       0       0       0       0       0       0
       0       0       0       0       0       0       0       0
       0       0       0       0       0       0       0       0
       0       0       0       0       0       0       0       0
       0       0       0       0       0       0       0       0
       0       0       0       0       0       0       0       0
       0       0       0       0       0       0       0       0
       0       0       0       0       0       0       0       0
       0       0       0       0       0       0       0       0
       0       0       0       0       0       0       0       0
       0       0       0       0       0       0       0       0
       0       0       0       0       0       0       0       0
       0       0       0       0       0       0       0       0
       0       0       0       0       0       0       0       0
       0       0       0       0       0       0       0       0
       0       0       0       0       0       0       0       0
       0       0       0       0       0       0       0       0
       0       0       0       0       0       0       0       0
       0       0       0       0       0       0       0       0
       0       0       0       0       0       0       0       0
       0       0       0       0       0       0       0       0
       0       0       0       0       0       0       0       0
       0       0       0       0       0       0       0       0
       0       0       0       0       0       0       0       0
       0       0       0       0       0       0       0       0
       0       0       0       0       0       0       0       0
       0       0       0       0       0       0       0       0
       0       0       0       0       0       0       0       0
       0       0       0       0       0       0       0       0
       0       0       0       0       0       0       0       0
       0       0       0       0       0       0       0       0
       0       0       0       0       0       0       0       0
       0       0       0       0       0       0       0       0
       0       0       0       0       0       0       0       0
       0       0       0       0       0       0       0       0
       0       0       0       0       0       0       0       0
       0       0       0       0       0       0       0       0
       0       0       0       0       0       0       0       0
       0       0       0       0       0       0       0       0
       0       0       0       0       0       0       0       0
       0       0       0       0       0       0       0       0
       0       0       0       0       0       0       0       0
       0       0       0       0       0       0       0       0
       0       0       0       0       0       0       0       0
       0       0       0       0       0       0       0       0
       0       0       0       0       0       0       0       0
       0       0       0       0       0       0       0       0
       0       0       0       0       0       0       0       0
       0       0       0       0       0       0       0       0
       0       0       0       0       0       0       0       0
       0       0       0       0       0       0       0       0
       0       0       0       0       0       0       0       0
       0       0       0       0       0       0       0       0
       0       0       0       0       0       0       0       0
       0       0       0       0       0       0       0       0
       0       0       0       0       0       0       0       0
       0       0       0       0       0       0       0       0
       0       0       0       0       0       0       0       0
       0       0       0       0       0       0       0       0
       0       0       0       0       0       0       0       0
       0       0       0       0       0       0       0       0
       0       0       0       0       0       0       0       0
       0       0       0       0       0       0       0       0
       0       0       0       0       0       0       0       0
       0       0       0       0       0       0       0       0
       0       0       0       0       0       0       0       0
       0       0       0       0       0       0       0       0
       0       0       0       0       0       0       0       0
       0       0       0       0       0       0       0       0
       0       0       0       0       0       0       0       0
       0       0       0       0       0       0       0       0
       0       0       0       0       0       0       0       0
       0       0       0       0       0       0       0       0
       0       0       0       0       0       0       0       0
       0       0       0       0       0       0       0       0
       0       0       0       0       0       0       0       0
       0       0       0       0       0       0       0       0
       0       0       0       0       0       0       0       0
       0       0       0       0       0       0       0       0
       0       0       0       0       0       0       0       0
       0       0       0       0       0       0       0       0
       0       0       0       0       0       0       0       0
       0       0       0       0       0       0       0       0
       0       0       0       0       0       0       0       0
       0       0       0       0       0       0       0       0
       0       0       0       0       0       0       0       0
       0       0       0       0       0       0       0       0
       0       0       0       0       0       0       0       0
       0       0       0       0       0       0       0       0
       0       0       0       0       0       0       0       0
       0       0       0       0       0       0       0       0
       0       0       0       0       0       0       0       0
       0       0       0       0       0       0       0       0
       0       0       0       0       0       0       0       0
       0       0       0       0       0       0       0       0
       0       0       0       0       0       0       0       0
       0       0       0       0       0       0       0       0
       0       0       0       0       0       0       0       0
       0       0       0       0       0       0       0       0
       0       0       0       0       0       0       0       0
       0       0       0       0       0       0       0       0
       0       0       0       0       0       0       0       0
       0       0       0       0       0       0       0       0
       0       0       0       0       0       0       0       0
       0       0       0       0       0       0       0       0
       0       0       0       0       0       0       0       0
       0       0       0       0       0       0       0       0
       0       0       0       0       0       0       0       0
       0       0       0       0       0       0       0       0
       0       0       0       0       0       0       0       0
       0       0       0       0       0       0       0       0
       0       0       0       0       0       0       0       0
       0       0       0       0       0       0       0       0
       0       0       0       0       0       0       0       0
       0       0       0       0       0       0       0       0
       0       0       0       0       0       0       0       0
       0       0       0       0       0       0       0       0
       0       0       0       0       0       0       0       0
       0       0       0       0       0       0       0       0
       0       0       0       0       0       0       0       0
       0       0       0       0       0       0       0       0
       0       0       0       0       0       0       0       0
       0       0       0       0       0       0       0       0
       0       0       0       0       0       0       0       0
       0       0       0       0       0       0       0       0
       0       0       0       0       0       0       0       0
       0       0       0       0       0       0       0       0
       0       0       0       0       0       0       0       0
       0       0       0       0       0       0       0       0
       0       0       0       0       0       0       0       0
       0       0       0       0       0       0       0       0
       0       0       0       0       0       0       0       0
       0       0       0       0       0       0       0       0
       0       0       0       0       0       0       0       0
       0       0       0       0       0       0       0       0
       0       0       0       0       0       0       0       0
       0       0       0       0       0       0       0       0
       0       0       0       0       0       0       0       0
       0       0       0       0       0       0       0       0
       0       0       0       0       0       0       0       0
       0       0       0       0       0       0       0       0
       0       0       0       0       0       0       0       0
       0       0       0       0       0       0       0       0
       0       0       0       0       0       0       0       0
       0       0       0       0       0       0       0       0
       0       0       0       0       0       0       0       0
       0       0       0       0       0       0       0       0
       0       0       0       0       0       0       0       0
       0       0       0       0       0       0       0       0
       0       0       0       0       0       0       0       0
       0       0       0       0       0       0       0       0
       0       0       0       0       0       0       0       0
       0       0       0       0       0       0       0       0
       0       0       0       0       0       0       0       0
       0       0       0       0       0       0       0       0
       0       0       0       0       0       0       0       0
       0       0       0       0       0       0       0       0
       0       0       0       0       0       0       0       0
       0       0       0       0       0       0       0       0
       0       0       0       0       0       0       0       0
       0       0       0       0       0       0       0       0
       0       0       0       0       0       0       0       0
       0       0       0       0       0       0       0       0
       0       0       0       0       0       0       0       0
       0       0       0       0       0       0       0       0
       0       0       0       0       0       0       0       0
       0       0       0       0       0       0       0       0
       0       0       0       0       0       0       0       0
       0       0       0       0       0       0       0       0
       0       0       0       0       0       0       0       0
       0       0       0       0       0       0       0       0
       0       0       0       0       0       0       0       0
       0       0       0       0       0       0       0       0
       0       0       0       0       0       0       0       0
       0       0       0       0       0       0       0       0
       0       0       0       0       0       0       0       0
       0       0       0       0       0       0       0       0
       0       0       0       0       0       0       0       0
       0       0       0       0       0       0       0       0
       0       0       0       0       0       0       0       0
       0       0       0       0       0       0       0       0
       0       0       0       0       0       0       0       0
       0       0       0       0       0       0       0       0
       0       0       0       0       0       0       0       0
       0       0       0       0       0       0       0       0
       0       0       0       0       0       0       0       0
       0       0       0       0       0       0       0       0
       0       0       0       0       0       0       0       0
       0       0       0       0       0       0       0       0
       0       0       0       0       0       0       0       0
       0       0       0       0       0       0       0       0
       0       0       0       0       0       0       0       0
       0       0       0       0       0       0       0       0
       0       0       0       0       0       0       0       0
       0       0       0       0       0       0       0       0
       0       0       0       0       0       0       0       0
       0       0       0       0       0       0       0       0
       0       0       0       0       0       0       0       0
       0       0       0       0       0       0       0       0
       0       0       0       0       0       0       0       0
       0       0       0       0       0       0       0       0
       0       0       0       0       0       0       0       0
       0       0       0       0       0       0       0       0
       0       0       0       0       0       0       0       0
       0       0       0       0       0       0       0       0
       0       0       0       0       0       0       0       0
       0       0       0       0       0       0       0       0
       0       0       0       0       0       0       0       0
       0       0       0       0       0       0       0       0
       0       0       0       0       0       0       0       0
       0       0       0       0       0       0       0       0
       0       0       0       0       0       0       0       0
       0       0       0       0       0       0       0       0
       0       0       0       0       0       0       0       0
       0       0       0       0       0       0       0       0
       0       0       0       0       0       0       0       0
       0       0       0       0       0       0       0       0
       0       0       0       0       0       0       0       0
       0       0       0       0       0       0       0       0
       0       0       0       0       0       0       0       0
       0       0       0       0       0       0       0       0
       0       0       0       0       0       0       0       0
       0       0       0       0       0       0       0       0
       0       0       0       0       0       0       0       0
       0       0       0       0       0       0       0       0
       0       0       0       0       0       0       0       0
       0       0       0       0       0       0       0       0
       0       0       0       0       0       0       0       0
       0       0       0       0       0       0       0       0
       0       0       0       0       0       0       0       0
       0       0       0       0       0       0       0       0
       0       0       0       0       0       0       0       0
       0       0       0       0       0       0       0       0
       0       0       0       0       0       0       0       0
       0       0       0       0       0       0       0       0
       0       0       0       0       0       0       0       0
       0       0       0       0       0       0       0       0
       0       0       0       0       0       0       0       0
       0       0       0       0       0       0       0       0
       0       0       0       0       0       0       0       0
       0       0       0       0       0       0       0       0
       0       0       0       0       0       0       0       0
       0       0       0       0       0       0       0       0
       0       0       0       0       0       0       0       0
       0       0       0       0       0       0       0       0
       0       0       0       0       0       0       0       0
       0       0       0       0       0       0       0       0
       0       0       0       0       0       0       0       0
       0       0       0       0       0       0       0       0
       0       0       0       0       0       0       0       0
       0       0       0       0       0       0       0       0
       0       0       0       0       0       0       0       0
       0       0       0       0       0       0       0       0
       0       0       0       0       0       0       0       0
       0       0       0       0       0       0       0       0
       0       0       0       0       0       0       0       0
       0       0       0       0       0       0       0       0
       0       0       0       0       0       0       0       0
       0       0       0       0       0       0       0       0
       0       0       0       0       0       0       0       0
       0       0       0       0       0       0       0       0
       0       0       0       0       0       0       0       0
       0       0       0       0       0       0       0       0
       0       0       0       0       0       0       0       0
       0       0       0       0       0       0       0       0
       0       0       0       0       0       0       0       0
       0       0       0       0       0       0       0       0
       0       0       0       0       0       0       0       0
       0       0       0       0       0       0       0       0
       0       0       0       0       0       0       0       0
       0       0       0       0       0       0       0       0
       0       0       0       0       0       0       0       0
       0       0       0       0       0       0       0       0
       0       0       0       0       0       0       0       0
       0       0       0       0       0       0       0       0
       0       0       0       0       0       0       0       0

       1       0 !NGRP
       1       1     2964

